V -t * -v 1.0a5 -a 0
A -t * -n 1 -p 0 -o 0x7fffffff -c 30 -a 1
A -t * -h 1 -m 1073741823 -s 0
c -t * -i 4 -n Yellow
c -t * -i 1 -n Blue
c -t * -i 2 -n Red
c -t * -i 3 -n Green
n -t * -a 0 -s 0 -S UP -v circle -c black -i black
n -t * -a 1 -s 1 -S UP -v circle -c black -i black
n -t * -a 2 -s 2 -S UP -v circle -c black -i black
n -t * -a 3 -s 3 -S UP -v circle -c black -i black
l -t * -s 0 -d 1 -S UP -r 1000000 -D 0.01 -c black
l -t * -s 0 -d 2 -S UP -r 1000000 -D 0.01 -c black
l -t * -s 0 -d 3 -S UP -r 1000000 -D 0.01 -c black
l -t * -s 1 -d 2 -S UP -r 1000000 -D 0.01 -c black
l -t * -s 1 -d 3 -S UP -r 1000000 -D 0.01 -c black
l -t * -s 2 -d 3 -S UP -r 1000000 -D 0.01 -c black
+ -t 1 -s 0 -d 1 -p tcp -e 40 -c 1 -i 0 -a 1 -x {0.0 1.1 0 ------- null}
- -t 1 -s 0 -d 1 -p tcp -e 40 -c 1 -i 0 -a 1 -x {0.0 1.1 0 ------- null}
h -t 1 -s 0 -d 1 -p tcp -e 40 -c 1 -i 0 -a 1 -x {0.0 1.1 -1 ------- null}
r -t 1.01032 -s 0 -d 1 -p tcp -e 40 -c 1 -i 0 -a 1 -x {0.0 1.1 0 ------- null}
+ -t 1.01032 -s 1 -d 0 -p ack -e 40 -c 1 -i 1 -a 1 -x {1.1 0.0 0 ------- null}
- -t 1.01032 -s 1 -d 0 -p ack -e 40 -c 1 -i 1 -a 1 -x {1.1 0.0 0 ------- null}
h -t 1.01032 -s 1 -d 0 -p ack -e 40 -c 1 -i 1 -a 1 -x {1.1 0.0 -1 ------- null}
r -t 1.02064 -s 1 -d 0 -p ack -e 40 -c 1 -i 1 -a 1 -x {1.1 0.0 0 ------- null}
+ -t 1.02064 -s 0 -d 1 -p tcp -e 1040 -c 1 -i 2 -a 1 -x {0.0 1.1 1 ------- null}
- -t 1.02064 -s 0 -d 1 -p tcp -e 1040 -c 1 -i 2 -a 1 -x {0.0 1.1 1 ------- null}
h -t 1.02064 -s 0 -d 1 -p tcp -e 1040 -c 1 -i 2 -a 1 -x {0.0 1.1 -1 ------- null}
+ -t 1.02064 -s 0 -d 1 -p tcp -e 1040 -c 1 -i 3 -a 1 -x {0.0 1.1 2 ------- null}
- -t 1.02896 -s 0 -d 1 -p tcp -e 1040 -c 1 -i 3 -a 1 -x {0.0 1.1 2 ------- null}
h -t 1.02896 -s 0 -d 1 -p tcp -e 1040 -c 1 -i 3 -a 1 -x {0.0 1.1 -1 ------- null}
r -t 1.03896 -s 0 -d 1 -p tcp -e 1040 -c 1 -i 2 -a 1 -x {0.0 1.1 1 ------- null}
+ -t 1.03896 -s 1 -d 0 -p ack -e 40 -c 1 -i 4 -a 1 -x {1.1 0.0 1 ------- null}
- -t 1.03896 -s 1 -d 0 -p ack -e 40 -c 1 -i 4 -a 1 -x {1.1 0.0 1 ------- null}
h -t 1.03896 -s 1 -d 0 -p ack -e 40 -c 1 -i 4 -a 1 -x {1.1 0.0 -1 ------- null}
r -t 1.04728 -s 0 -d 1 -p tcp -e 1040 -c 1 -i 3 -a 1 -x {0.0 1.1 2 ------- null}
+ -t 1.04728 -s 1 -d 0 -p ack -e 40 -c 1 -i 5 -a 1 -x {1.1 0.0 2 ------- null}
- -t 1.04728 -s 1 -d 0 -p ack -e 40 -c 1 -i 5 -a 1 -x {1.1 0.0 2 ------- null}
h -t 1.04728 -s 1 -d 0 -p ack -e 40 -c 1 -i 5 -a 1 -x {1.1 0.0 -1 ------- null}
r -t 1.04928 -s 1 -d 0 -p ack -e 40 -c 1 -i 4 -a 1 -x {1.1 0.0 1 ------- null}
+ -t 1.04928 -s 0 -d 1 -p tcp -e 1040 -c 1 -i 6 -a 1 -x {0.0 1.1 3 ------- null}
- -t 1.04928 -s 0 -d 1 -p tcp -e 1040 -c 1 -i 6 -a 1 -x {0.0 1.1 3 ------- null}
h -t 1.04928 -s 0 -d 1 -p tcp -e 1040 -c 1 -i 6 -a 1 -x {0.0 1.1 -1 ------- null}
+ -t 1.04928 -s 0 -d 1 -p tcp -e 1040 -c 1 -i 7 -a 1 -x {0.0 1.1 4 ------- null}
r -t 1.0576 -s 1 -d 0 -p ack -e 40 -c 1 -i 5 -a 1 -x {1.1 0.0 2 ------- null}
+ -t 1.0576 -s 0 -d 1 -p tcp -e 1040 -c 1 -i 8 -a 1 -x {0.0 1.1 5 ------- null}
+ -t 1.0576 -s 0 -d 1 -p tcp -e 1040 -c 1 -i 9 -a 1 -x {0.0 1.1 6 ------- null}
- -t 1.0576 -s 0 -d 1 -p tcp -e 1040 -c 1 -i 7 -a 1 -x {0.0 1.1 4 ------- null}
h -t 1.0576 -s 0 -d 1 -p tcp -e 1040 -c 1 -i 7 -a 1 -x {0.0 1.1 -1 ------- null}
- -t 1.06592 -s 0 -d 1 -p tcp -e 1040 -c 1 -i 8 -a 1 -x {0.0 1.1 5 ------- null}
h -t 1.06592 -s 0 -d 1 -p tcp -e 1040 -c 1 -i 8 -a 1 -x {0.0 1.1 -1 ------- null}
r -t 1.0676 -s 0 -d 1 -p tcp -e 1040 -c 1 -i 6 -a 1 -x {0.0 1.1 3 ------- null}
+ -t 1.0676 -s 1 -d 0 -p ack -e 40 -c 1 -i 10 -a 1 -x {1.1 0.0 3 ------- null}
- -t 1.0676 -s 1 -d 0 -p ack -e 40 -c 1 -i 10 -a 1 -x {1.1 0.0 3 ------- null}
h -t 1.0676 -s 1 -d 0 -p ack -e 40 -c 1 -i 10 -a 1 -x {1.1 0.0 -1 ------- null}
- -t 1.07424 -s 0 -d 1 -p tcp -e 1040 -c 1 -i 9 -a 1 -x {0.0 1.1 6 ------- null}
h -t 1.07424 -s 0 -d 1 -p tcp -e 1040 -c 1 -i 9 -a 1 -x {0.0 1.1 -1 ------- null}
r -t 1.07592 -s 0 -d 1 -p tcp -e 1040 -c 1 -i 7 -a 1 -x {0.0 1.1 4 ------- null}
+ -t 1.07592 -s 1 -d 0 -p ack -e 40 -c 1 -i 11 -a 1 -x {1.1 0.0 4 ------- null}
- -t 1.07592 -s 1 -d 0 -p ack -e 40 -c 1 -i 11 -a 1 -x {1.1 0.0 4 ------- null}
h -t 1.07592 -s 1 -d 0 -p ack -e 40 -c 1 -i 11 -a 1 -x {1.1 0.0 -1 ------- null}
r -t 1.07792 -s 1 -d 0 -p ack -e 40 -c 1 -i 10 -a 1 -x {1.1 0.0 3 ------- null}
+ -t 1.07792 -s 0 -d 1 -p tcp -e 1040 -c 1 -i 12 -a 1 -x {0.0 1.1 7 ------- null}
+ -t 1.07792 -s 0 -d 1 -p tcp -e 1040 -c 1 -i 13 -a 1 -x {0.0 1.1 8 ------- null}
- -t 1.08256 -s 0 -d 1 -p tcp -e 1040 -c 1 -i 12 -a 1 -x {0.0 1.1 7 ------- null}
h -t 1.08256 -s 0 -d 1 -p tcp -e 1040 -c 1 -i 12 -a 1 -x {0.0 1.1 -1 ------- null}
r -t 1.08424 -s 0 -d 1 -p tcp -e 1040 -c 1 -i 8 -a 1 -x {0.0 1.1 5 ------- null}
+ -t 1.08424 -s 1 -d 0 -p ack -e 40 -c 1 -i 14 -a 1 -x {1.1 0.0 5 ------- null}
- -t 1.08424 -s 1 -d 0 -p ack -e 40 -c 1 -i 14 -a 1 -x {1.1 0.0 5 ------- null}
h -t 1.08424 -s 1 -d 0 -p ack -e 40 -c 1 -i 14 -a 1 -x {1.1 0.0 -1 ------- null}
r -t 1.08624 -s 1 -d 0 -p ack -e 40 -c 1 -i 11 -a 1 -x {1.1 0.0 4 ------- null}
+ -t 1.08624 -s 0 -d 1 -p tcp -e 1040 -c 1 -i 15 -a 1 -x {0.0 1.1 9 ------- null}
+ -t 1.08624 -s 0 -d 1 -p tcp -e 1040 -c 1 -i 16 -a 1 -x {0.0 1.1 10 ------- null}
- -t 1.09088 -s 0 -d 1 -p tcp -e 1040 -c 1 -i 13 -a 1 -x {0.0 1.1 8 ------- null}
h -t 1.09088 -s 0 -d 1 -p tcp -e 1040 -c 1 -i 13 -a 1 -x {0.0 1.1 -1 ------- null}
r -t 1.09256 -s 0 -d 1 -p tcp -e 1040 -c 1 -i 9 -a 1 -x {0.0 1.1 6 ------- null}
+ -t 1.09256 -s 1 -d 0 -p ack -e 40 -c 1 -i 17 -a 1 -x {1.1 0.0 6 ------- null}
- -t 1.09256 -s 1 -d 0 -p ack -e 40 -c 1 -i 17 -a 1 -x {1.1 0.0 6 ------- null}
h -t 1.09256 -s 1 -d 0 -p ack -e 40 -c 1 -i 17 -a 1 -x {1.1 0.0 -1 ------- null}
r -t 1.09456 -s 1 -d 0 -p ack -e 40 -c 1 -i 14 -a 1 -x {1.1 0.0 5 ------- null}
+ -t 1.09456 -s 0 -d 1 -p tcp -e 1040 -c 1 -i 18 -a 1 -x {0.0 1.1 11 ------- null}
+ -t 1.09456 -s 0 -d 1 -p tcp -e 1040 -c 1 -i 19 -a 1 -x {0.0 1.1 12 ------- null}
- -t 1.0992 -s 0 -d 1 -p tcp -e 1040 -c 1 -i 15 -a 1 -x {0.0 1.1 9 ------- null}
h -t 1.0992 -s 0 -d 1 -p tcp -e 1040 -c 1 -i 15 -a 1 -x {0.0 1.1 -1 ------- null}
r -t 1.10088 -s 0 -d 1 -p tcp -e 1040 -c 1 -i 12 -a 1 -x {0.0 1.1 7 ------- null}
+ -t 1.10088 -s 1 -d 0 -p ack -e 40 -c 1 -i 20 -a 1 -x {1.1 0.0 7 ------- null}
- -t 1.10088 -s 1 -d 0 -p ack -e 40 -c 1 -i 20 -a 1 -x {1.1 0.0 7 ------- null}
h -t 1.10088 -s 1 -d 0 -p ack -e 40 -c 1 -i 20 -a 1 -x {1.1 0.0 -1 ------- null}
r -t 1.10288 -s 1 -d 0 -p ack -e 40 -c 1 -i 17 -a 1 -x {1.1 0.0 6 ------- null}
+ -t 1.10288 -s 0 -d 1 -p tcp -e 1040 -c 1 -i 21 -a 1 -x {0.0 1.1 13 ------- null}
+ -t 1.10288 -s 0 -d 1 -p tcp -e 1040 -c 1 -i 22 -a 1 -x {0.0 1.1 14 ------- null}
d -t 1.10288 -s 0 -d 1 -p tcp -e 1040 -c 1 -i 22 -a 1 -x {0.0 1.1 14 ------- null}
- -t 1.10752 -s 0 -d 1 -p tcp -e 1040 -c 1 -i 16 -a 1 -x {0.0 1.1 10 ------- null}
h -t 1.10752 -s 0 -d 1 -p tcp -e 1040 -c 1 -i 16 -a 1 -x {0.0 1.1 -1 ------- null}
r -t 1.1092 -s 0 -d 1 -p tcp -e 1040 -c 1 -i 13 -a 1 -x {0.0 1.1 8 ------- null}
+ -t 1.1092 -s 1 -d 0 -p ack -e 40 -c 1 -i 23 -a 1 -x {1.1 0.0 8 ------- null}
- -t 1.1092 -s 1 -d 0 -p ack -e 40 -c 1 -i 23 -a 1 -x {1.1 0.0 8 ------- null}
h -t 1.1092 -s 1 -d 0 -p ack -e 40 -c 1 -i 23 -a 1 -x {1.1 0.0 -1 ------- null}
r -t 1.1112 -s 1 -d 0 -p ack -e 40 -c 1 -i 20 -a 1 -x {1.1 0.0 7 ------- null}
+ -t 1.1112 -s 0 -d 1 -p tcp -e 1040 -c 1 -i 24 -a 1 -x {0.0 1.1 15 ------- null}
+ -t 1.1112 -s 0 -d 1 -p tcp -e 1040 -c 1 -i 25 -a 1 -x {0.0 1.1 16 ------- null}
d -t 1.1112 -s 0 -d 1 -p tcp -e 1040 -c 1 -i 25 -a 1 -x {0.0 1.1 16 ------- null}
- -t 1.11584 -s 0 -d 1 -p tcp -e 1040 -c 1 -i 18 -a 1 -x {0.0 1.1 11 ------- null}
h -t 1.11584 -s 0 -d 1 -p tcp -e 1040 -c 1 -i 18 -a 1 -x {0.0 1.1 -1 ------- null}
r -t 1.11752 -s 0 -d 1 -p tcp -e 1040 -c 1 -i 15 -a 1 -x {0.0 1.1 9 ------- null}
+ -t 1.11752 -s 1 -d 0 -p ack -e 40 -c 1 -i 26 -a 1 -x {1.1 0.0 9 ------- null}
- -t 1.11752 -s 1 -d 0 -p ack -e 40 -c 1 -i 26 -a 1 -x {1.1 0.0 9 ------- null}
h -t 1.11752 -s 1 -d 0 -p ack -e 40 -c 1 -i 26 -a 1 -x {1.1 0.0 -1 ------- null}
r -t 1.11952 -s 1 -d 0 -p ack -e 40 -c 1 -i 23 -a 1 -x {1.1 0.0 8 ------- null}
+ -t 1.11952 -s 0 -d 1 -p tcp -e 1040 -c 1 -i 27 -a 1 -x {0.0 1.1 17 ------- null}
+ -t 1.11952 -s 0 -d 1 -p tcp -e 1040 -c 1 -i 28 -a 1 -x {0.0 1.1 18 ------- null}
d -t 1.11952 -s 0 -d 1 -p tcp -e 1040 -c 1 -i 28 -a 1 -x {0.0 1.1 18 ------- null}
- -t 1.12416 -s 0 -d 1 -p tcp -e 1040 -c 1 -i 19 -a 1 -x {0.0 1.1 12 ------- null}
h -t 1.12416 -s 0 -d 1 -p tcp -e 1040 -c 1 -i 19 -a 1 -x {0.0 1.1 -1 ------- null}
r -t 1.12584 -s 0 -d 1 -p tcp -e 1040 -c 1 -i 16 -a 1 -x {0.0 1.1 10 ------- null}
+ -t 1.12584 -s 1 -d 0 -p ack -e 40 -c 1 -i 29 -a 1 -x {1.1 0.0 10 ------- null}
- -t 1.12584 -s 1 -d 0 -p ack -e 40 -c 1 -i 29 -a 1 -x {1.1 0.0 10 ------- null}
h -t 1.12584 -s 1 -d 0 -p ack -e 40 -c 1 -i 29 -a 1 -x {1.1 0.0 -1 ------- null}
r -t 1.12784 -s 1 -d 0 -p ack -e 40 -c 1 -i 26 -a 1 -x {1.1 0.0 9 ------- null}
+ -t 1.12784 -s 0 -d 1 -p tcp -e 1040 -c 1 -i 30 -a 1 -x {0.0 1.1 19 ------- null}
+ -t 1.12784 -s 0 -d 1 -p tcp -e 1040 -c 1 -i 31 -a 1 -x {0.0 1.1 20 ------- null}
d -t 1.12784 -s 0 -d 1 -p tcp -e 1040 -c 1 -i 31 -a 1 -x {0.0 1.1 20 ------- null}
- -t 1.13248 -s 0 -d 1 -p tcp -e 1040 -c 1 -i 21 -a 1 -x {0.0 1.1 13 ------- null}
h -t 1.13248 -s 0 -d 1 -p tcp -e 1040 -c 1 -i 21 -a 1 -x {0.0 1.1 -1 ------- null}
r -t 1.13416 -s 0 -d 1 -p tcp -e 1040 -c 1 -i 18 -a 1 -x {0.0 1.1 11 ------- null}
+ -t 1.13416 -s 1 -d 0 -p ack -e 40 -c 1 -i 32 -a 1 -x {1.1 0.0 11 ------- null}
- -t 1.13416 -s 1 -d 0 -p ack -e 40 -c 1 -i 32 -a 1 -x {1.1 0.0 11 ------- null}
h -t 1.13416 -s 1 -d 0 -p ack -e 40 -c 1 -i 32 -a 1 -x {1.1 0.0 -1 ------- null}
r -t 1.13616 -s 1 -d 0 -p ack -e 40 -c 1 -i 29 -a 1 -x {1.1 0.0 10 ------- null}
+ -t 1.13616 -s 0 -d 1 -p tcp -e 1040 -c 1 -i 33 -a 1 -x {0.0 1.1 21 ------- null}
+ -t 1.13616 -s 0 -d 1 -p tcp -e 1040 -c 1 -i 34 -a 1 -x {0.0 1.1 22 ------- null}
d -t 1.13616 -s 0 -d 1 -p tcp -e 1040 -c 1 -i 34 -a 1 -x {0.0 1.1 22 ------- null}
- -t 1.1408 -s 0 -d 1 -p tcp -e 1040 -c 1 -i 24 -a 1 -x {0.0 1.1 15 ------- null}
h -t 1.1408 -s 0 -d 1 -p tcp -e 1040 -c 1 -i 24 -a 1 -x {0.0 1.1 -1 ------- null}
r -t 1.14248 -s 0 -d 1 -p tcp -e 1040 -c 1 -i 19 -a 1 -x {0.0 1.1 12 ------- null}
+ -t 1.14248 -s 1 -d 0 -p ack -e 40 -c 1 -i 35 -a 1 -x {1.1 0.0 12 ------- null}
- -t 1.14248 -s 1 -d 0 -p ack -e 40 -c 1 -i 35 -a 1 -x {1.1 0.0 12 ------- null}
h -t 1.14248 -s 1 -d 0 -p ack -e 40 -c 1 -i 35 -a 1 -x {1.1 0.0 -1 ------- null}
r -t 1.14448 -s 1 -d 0 -p ack -e 40 -c 1 -i 32 -a 1 -x {1.1 0.0 11 ------- null}
+ -t 1.14448 -s 0 -d 1 -p tcp -e 1040 -c 1 -i 36 -a 1 -x {0.0 1.1 23 ------- null}
+ -t 1.14448 -s 0 -d 1 -p tcp -e 1040 -c 1 -i 37 -a 1 -x {0.0 1.1 24 ------- null}
d -t 1.14448 -s 0 -d 1 -p tcp -e 1040 -c 1 -i 37 -a 1 -x {0.0 1.1 24 ------- null}
- -t 1.14912 -s 0 -d 1 -p tcp -e 1040 -c 1 -i 27 -a 1 -x {0.0 1.1 17 ------- null}
h -t 1.14912 -s 0 -d 1 -p tcp -e 1040 -c 1 -i 27 -a 1 -x {0.0 1.1 -1 ------- null}
r -t 1.1508 -s 0 -d 1 -p tcp -e 1040 -c 1 -i 21 -a 1 -x {0.0 1.1 13 ------- null}
+ -t 1.1508 -s 1 -d 0 -p ack -e 40 -c 1 -i 38 -a 1 -x {1.1 0.0 13 ------- null}
- -t 1.1508 -s 1 -d 0 -p ack -e 40 -c 1 -i 38 -a 1 -x {1.1 0.0 13 ------- null}
h -t 1.1508 -s 1 -d 0 -p ack -e 40 -c 1 -i 38 -a 1 -x {1.1 0.0 -1 ------- null}
r -t 1.1528 -s 1 -d 0 -p ack -e 40 -c 1 -i 35 -a 1 -x {1.1 0.0 12 ------- null}
+ -t 1.1528 -s 0 -d 1 -p tcp -e 1040 -c 1 -i 39 -a 1 -x {0.0 1.1 25 ------- null}
+ -t 1.1528 -s 0 -d 1 -p tcp -e 1040 -c 1 -i 40 -a 1 -x {0.0 1.1 26 ------- null}
d -t 1.1528 -s 0 -d 1 -p tcp -e 1040 -c 1 -i 40 -a 1 -x {0.0 1.1 26 ------- null}
- -t 1.15744 -s 0 -d 1 -p tcp -e 1040 -c 1 -i 30 -a 1 -x {0.0 1.1 19 ------- null}
h -t 1.15744 -s 0 -d 1 -p tcp -e 1040 -c 1 -i 30 -a 1 -x {0.0 1.1 -1 ------- null}
r -t 1.15912 -s 0 -d 1 -p tcp -e 1040 -c 1 -i 24 -a 1 -x {0.0 1.1 15 ------- null}
+ -t 1.15912 -s 1 -d 0 -p ack -e 40 -c 1 -i 41 -a 1 -x {1.1 0.0 13 ------- null}
- -t 1.15912 -s 1 -d 0 -p ack -e 40 -c 1 -i 41 -a 1 -x {1.1 0.0 13 ------- null}
h -t 1.15912 -s 1 -d 0 -p ack -e 40 -c 1 -i 41 -a 1 -x {1.1 0.0 -1 ------- null}
r -t 1.16112 -s 1 -d 0 -p ack -e 40 -c 1 -i 38 -a 1 -x {1.1 0.0 13 ------- null}
+ -t 1.16112 -s 0 -d 1 -p tcp -e 1040 -c 1 -i 42 -a 1 -x {0.0 1.1 27 ------- null}
+ -t 1.16112 -s 0 -d 1 -p tcp -e 1040 -c 1 -i 43 -a 1 -x {0.0 1.1 28 ------- null}
d -t 1.16112 -s 0 -d 1 -p tcp -e 1040 -c 1 -i 43 -a 1 -x {0.0 1.1 28 ------- null}
- -t 1.16576 -s 0 -d 1 -p tcp -e 1040 -c 1 -i 33 -a 1 -x {0.0 1.1 21 ------- null}
h -t 1.16576 -s 0 -d 1 -p tcp -e 1040 -c 1 -i 33 -a 1 -x {0.0 1.1 -1 ------- null}
r -t 1.16744 -s 0 -d 1 -p tcp -e 1040 -c 1 -i 27 -a 1 -x {0.0 1.1 17 ------- null}
+ -t 1.16744 -s 1 -d 0 -p ack -e 40 -c 1 -i 44 -a 1 -x {1.1 0.0 13 ------- null}
- -t 1.16744 -s 1 -d 0 -p ack -e 40 -c 1 -i 44 -a 1 -x {1.1 0.0 13 ------- null}
h -t 1.16744 -s 1 -d 0 -p ack -e 40 -c 1 -i 44 -a 1 -x {1.1 0.0 -1 ------- null}
r -t 1.16944 -s 1 -d 0 -p ack -e 40 -c 1 -i 41 -a 1 -x {1.1 0.0 13 ------- null}
+ -t 1.16944 -s 0 -d 1 -p tcp -e 1040 -c 1 -i 45 -a 1 -x {0.0 1.1 29 ------- null}
- -t 1.17408 -s 0 -d 1 -p tcp -e 1040 -c 1 -i 36 -a 1 -x {0.0 1.1 23 ------- null}
h -t 1.17408 -s 0 -d 1 -p tcp -e 1040 -c 1 -i 36 -a 1 -x {0.0 1.1 -1 ------- null}
r -t 1.17576 -s 0 -d 1 -p tcp -e 1040 -c 1 -i 30 -a 1 -x {0.0 1.1 19 ------- null}
+ -t 1.17576 -s 1 -d 0 -p ack -e 40 -c 1 -i 46 -a 1 -x {1.1 0.0 13 ------- null}
- -t 1.17576 -s 1 -d 0 -p ack -e 40 -c 1 -i 46 -a 1 -x {1.1 0.0 13 ------- null}
h -t 1.17576 -s 1 -d 0 -p ack -e 40 -c 1 -i 46 -a 1 -x {1.1 0.0 -1 ------- null}
r -t 1.17776 -s 1 -d 0 -p ack -e 40 -c 1 -i 44 -a 1 -x {1.1 0.0 13 ------- null}
+ -t 1.17776 -s 0 -d 1 -p tcp -e 1040 -c 1 -i 47 -a 1 -x {0.0 1.1 30 ------- null}
- -t 1.1824 -s 0 -d 1 -p tcp -e 1040 -c 1 -i 39 -a 1 -x {0.0 1.1 25 ------- null}
h -t 1.1824 -s 0 -d 1 -p tcp -e 1040 -c 1 -i 39 -a 1 -x {0.0 1.1 -1 ------- null}
r -t 1.18408 -s 0 -d 1 -p tcp -e 1040 -c 1 -i 33 -a 1 -x {0.0 1.1 21 ------- null}
+ -t 1.18408 -s 1 -d 0 -p ack -e 40 -c 1 -i 48 -a 1 -x {1.1 0.0 13 ------- null}
- -t 1.18408 -s 1 -d 0 -p ack -e 40 -c 1 -i 48 -a 1 -x {1.1 0.0 13 ------- null}
h -t 1.18408 -s 1 -d 0 -p ack -e 40 -c 1 -i 48 -a 1 -x {1.1 0.0 -1 ------- null}
r -t 1.18608 -s 1 -d 0 -p ack -e 40 -c 1 -i 46 -a 1 -x {1.1 0.0 13 ------- null}
+ -t 1.18608 -s 0 -d 1 -p tcp -e 1040 -c 1 -i 49 -a 1 -x {0.0 1.1 14 ---A--- null}
- -t 1.19072 -s 0 -d 1 -p tcp -e 1040 -c 1 -i 42 -a 1 -x {0.0 1.1 27 ------- null}
h -t 1.19072 -s 0 -d 1 -p tcp -e 1040 -c 1 -i 42 -a 1 -x {0.0 1.1 -1 ------- null}
r -t 1.1924 -s 0 -d 1 -p tcp -e 1040 -c 1 -i 36 -a 1 -x {0.0 1.1 23 ------- null}
+ -t 1.1924 -s 1 -d 0 -p ack -e 40 -c 1 -i 50 -a 1 -x {1.1 0.0 13 ------- null}
- -t 1.1924 -s 1 -d 0 -p ack -e 40 -c 1 -i 50 -a 1 -x {1.1 0.0 13 ------- null}
h -t 1.1924 -s 1 -d 0 -p ack -e 40 -c 1 -i 50 -a 1 -x {1.1 0.0 -1 ------- null}
r -t 1.1944 -s 1 -d 0 -p ack -e 40 -c 1 -i 48 -a 1 -x {1.1 0.0 13 ------- null}
- -t 1.19904 -s 0 -d 1 -p tcp -e 1040 -c 1 -i 45 -a 1 -x {0.0 1.1 29 ------- null}
h -t 1.19904 -s 0 -d 1 -p tcp -e 1040 -c 1 -i 45 -a 1 -x {0.0 1.1 -1 ------- null}
r -t 1.20072 -s 0 -d 1 -p tcp -e 1040 -c 1 -i 39 -a 1 -x {0.0 1.1 25 ------- null}
+ -t 1.20072 -s 1 -d 0 -p ack -e 40 -c 1 -i 51 -a 1 -x {1.1 0.0 13 ------- null}
- -t 1.20072 -s 1 -d 0 -p ack -e 40 -c 1 -i 51 -a 1 -x {1.1 0.0 13 ------- null}
h -t 1.20072 -s 1 -d 0 -p ack -e 40 -c 1 -i 51 -a 1 -x {1.1 0.0 -1 ------- null}
r -t 1.20272 -s 1 -d 0 -p ack -e 40 -c 1 -i 50 -a 1 -x {1.1 0.0 13 ------- null}
- -t 1.20736 -s 0 -d 1 -p tcp -e 1040 -c 1 -i 47 -a 1 -x {0.0 1.1 30 ------- null}
h -t 1.20736 -s 0 -d 1 -p tcp -e 1040 -c 1 -i 47 -a 1 -x {0.0 1.1 -1 ------- null}
r -t 1.20904 -s 0 -d 1 -p tcp -e 1040 -c 1 -i 42 -a 1 -x {0.0 1.1 27 ------- null}
+ -t 1.20904 -s 1 -d 0 -p ack -e 40 -c 1 -i 52 -a 1 -x {1.1 0.0 13 ------- null}
- -t 1.20904 -s 1 -d 0 -p ack -e 40 -c 1 -i 52 -a 1 -x {1.1 0.0 13 ------- null}
h -t 1.20904 -s 1 -d 0 -p ack -e 40 -c 1 -i 52 -a 1 -x {1.1 0.0 -1 ------- null}
r -t 1.21104 -s 1 -d 0 -p ack -e 40 -c 1 -i 51 -a 1 -x {1.1 0.0 13 ------- null}
- -t 1.21568 -s 0 -d 1 -p tcp -e 1040 -c 1 -i 49 -a 1 -x {0.0 1.1 14 ---A--- null}
h -t 1.21568 -s 0 -d 1 -p tcp -e 1040 -c 1 -i 49 -a 1 -x {0.0 1.1 -1 ---A--- null}
r -t 1.21736 -s 0 -d 1 -p tcp -e 1040 -c 1 -i 45 -a 1 -x {0.0 1.1 29 ------- null}
+ -t 1.21736 -s 1 -d 0 -p ack -e 40 -c 1 -i 53 -a 1 -x {1.1 0.0 13 ------- null}
- -t 1.21736 -s 1 -d 0 -p ack -e 40 -c 1 -i 53 -a 1 -x {1.1 0.0 13 ------- null}
h -t 1.21736 -s 1 -d 0 -p ack -e 40 -c 1 -i 53 -a 1 -x {1.1 0.0 -1 ------- null}
r -t 1.21936 -s 1 -d 0 -p ack -e 40 -c 1 -i 52 -a 1 -x {1.1 0.0 13 ------- null}
r -t 1.22568 -s 0 -d 1 -p tcp -e 1040 -c 1 -i 47 -a 1 -x {0.0 1.1 30 ------- null}
+ -t 1.22568 -s 1 -d 0 -p ack -e 40 -c 1 -i 54 -a 1 -x {1.1 0.0 13 ------- null}
- -t 1.22568 -s 1 -d 0 -p ack -e 40 -c 1 -i 54 -a 1 -x {1.1 0.0 13 ------- null}
h -t 1.22568 -s 1 -d 0 -p ack -e 40 -c 1 -i 54 -a 1 -x {1.1 0.0 -1 ------- null}
r -t 1.22768 -s 1 -d 0 -p ack -e 40 -c 1 -i 53 -a 1 -x {1.1 0.0 13 ------- null}
r -t 1.234 -s 0 -d 1 -p tcp -e 1040 -c 1 -i 49 -a 1 -x {0.0 1.1 14 ---A--- null}
+ -t 1.234 -s 1 -d 0 -p ack -e 40 -c 1 -i 55 -a 1 -x {1.1 0.0 15 ------- null}
- -t 1.234 -s 1 -d 0 -p ack -e 40 -c 1 -i 55 -a 1 -x {1.1 0.0 15 ------- null}
h -t 1.234 -s 1 -d 0 -p ack -e 40 -c 1 -i 55 -a 1 -x {1.1 0.0 -1 ------- null}
r -t 1.236 -s 1 -d 0 -p ack -e 40 -c 1 -i 54 -a 1 -x {1.1 0.0 13 ------- null}
r -t 1.24432 -s 1 -d 0 -p ack -e 40 -c 1 -i 55 -a 1 -x {1.1 0.0 15 ------- null}
+ -t 1.24432 -s 0 -d 1 -p tcp -e 1040 -c 1 -i 56 -a 1 -x {0.0 1.1 16 ------- null}
- -t 1.24432 -s 0 -d 1 -p tcp -e 1040 -c 1 -i 56 -a 1 -x {0.0 1.1 16 ------- null}
h -t 1.24432 -s 0 -d 1 -p tcp -e 1040 -c 1 -i 56 -a 1 -x {0.0 1.1 -1 ------- null}
+ -t 1.24432 -s 0 -d 1 -p tcp -e 1040 -c 1 -i 57 -a 1 -x {0.0 1.1 17 ------- null}
- -t 1.25264 -s 0 -d 1 -p tcp -e 1040 -c 1 -i 57 -a 1 -x {0.0 1.1 17 ------- null}
h -t 1.25264 -s 0 -d 1 -p tcp -e 1040 -c 1 -i 57 -a 1 -x {0.0 1.1 -1 ------- null}
r -t 1.26264 -s 0 -d 1 -p tcp -e 1040 -c 1 -i 56 -a 1 -x {0.0 1.1 16 ------- null}
+ -t 1.26264 -s 1 -d 0 -p ack -e 40 -c 1 -i 58 -a 1 -x {1.1 0.0 17 ------- null}
- -t 1.26264 -s 1 -d 0 -p ack -e 40 -c 1 -i 58 -a 1 -x {1.1 0.0 17 ------- null}
h -t 1.26264 -s 1 -d 0 -p ack -e 40 -c 1 -i 58 -a 1 -x {1.1 0.0 -1 ------- null}
r -t 1.27096 -s 0 -d 1 -p tcp -e 1040 -c 1 -i 57 -a 1 -x {0.0 1.1 17 ------- null}
+ -t 1.27096 -s 1 -d 0 -p ack -e 40 -c 1 -i 59 -a 1 -x {1.1 0.0 17 ------- null}
- -t 1.27096 -s 1 -d 0 -p ack -e 40 -c 1 -i 59 -a 1 -x {1.1 0.0 17 ------- null}
h -t 1.27096 -s 1 -d 0 -p ack -e 40 -c 1 -i 59 -a 1 -x {1.1 0.0 -1 ------- null}
r -t 1.27296 -s 1 -d 0 -p ack -e 40 -c 1 -i 58 -a 1 -x {1.1 0.0 17 ------- null}
+ -t 1.27296 -s 0 -d 1 -p tcp -e 1040 -c 1 -i 60 -a 1 -x {0.0 1.1 18 ------- null}
- -t 1.27296 -s 0 -d 1 -p tcp -e 1040 -c 1 -i 60 -a 1 -x {0.0 1.1 18 ------- null}
h -t 1.27296 -s 0 -d 1 -p tcp -e 1040 -c 1 -i 60 -a 1 -x {0.0 1.1 -1 ------- null}
+ -t 1.27296 -s 0 -d 1 -p tcp -e 1040 -c 1 -i 61 -a 1 -x {0.0 1.1 19 ------- null}
+ -t 1.27296 -s 0 -d 1 -p tcp -e 1040 -c 1 -i 62 -a 1 -x {0.0 1.1 20 ------- null}
r -t 1.28128 -s 1 -d 0 -p ack -e 40 -c 1 -i 59 -a 1 -x {1.1 0.0 17 ------- null}
+ -t 1.28128 -s 0 -d 1 -p tcp -e 1040 -c 1 -i 63 -a 1 -x {0.0 1.1 21 ------- null}
- -t 1.28128 -s 0 -d 1 -p tcp -e 1040 -c 1 -i 61 -a 1 -x {0.0 1.1 19 ------- null}
h -t 1.28128 -s 0 -d 1 -p tcp -e 1040 -c 1 -i 61 -a 1 -x {0.0 1.1 -1 ------- null}
- -t 1.2896 -s 0 -d 1 -p tcp -e 1040 -c 1 -i 62 -a 1 -x {0.0 1.1 20 ------- null}
h -t 1.2896 -s 0 -d 1 -p tcp -e 1040 -c 1 -i 62 -a 1 -x {0.0 1.1 -1 ------- null}
r -t 1.29128 -s 0 -d 1 -p tcp -e 1040 -c 1 -i 60 -a 1 -x {0.0 1.1 18 ------- null}
+ -t 1.29128 -s 1 -d 0 -p ack -e 40 -c 1 -i 64 -a 1 -x {1.1 0.0 19 ------- null}
- -t 1.29128 -s 1 -d 0 -p ack -e 40 -c 1 -i 64 -a 1 -x {1.1 0.0 19 ------- null}
h -t 1.29128 -s 1 -d 0 -p ack -e 40 -c 1 -i 64 -a 1 -x {1.1 0.0 -1 ------- null}
- -t 1.29792 -s 0 -d 1 -p tcp -e 1040 -c 1 -i 63 -a 1 -x {0.0 1.1 21 ------- null}
h -t 1.29792 -s 0 -d 1 -p tcp -e 1040 -c 1 -i 63 -a 1 -x {0.0 1.1 -1 ------- null}
r -t 1.2996 -s 0 -d 1 -p tcp -e 1040 -c 1 -i 61 -a 1 -x {0.0 1.1 19 ------- null}
+ -t 1.2996 -s 1 -d 0 -p ack -e 40 -c 1 -i 65 -a 1 -x {1.1 0.0 19 ------- null}
- -t 1.2996 -s 1 -d 0 -p ack -e 40 -c 1 -i 65 -a 1 -x {1.1 0.0 19 ------- null}
h -t 1.2996 -s 1 -d 0 -p ack -e 40 -c 1 -i 65 -a 1 -x {1.1 0.0 -1 ------- null}
r -t 1.3016 -s 1 -d 0 -p ack -e 40 -c 1 -i 64 -a 1 -x {1.1 0.0 19 ------- null}
+ -t 1.3016 -s 0 -d 1 -p tcp -e 1040 -c 1 -i 66 -a 1 -x {0.0 1.1 22 ------- null}
+ -t 1.3016 -s 0 -d 1 -p tcp -e 1040 -c 1 -i 67 -a 1 -x {0.0 1.1 23 ------- null}
- -t 1.30624 -s 0 -d 1 -p tcp -e 1040 -c 1 -i 66 -a 1 -x {0.0 1.1 22 ------- null}
h -t 1.30624 -s 0 -d 1 -p tcp -e 1040 -c 1 -i 66 -a 1 -x {0.0 1.1 -1 ------- null}
r -t 1.30792 -s 0 -d 1 -p tcp -e 1040 -c 1 -i 62 -a 1 -x {0.0 1.1 20 ------- null}
+ -t 1.30792 -s 1 -d 0 -p ack -e 40 -c 1 -i 68 -a 1 -x {1.1 0.0 21 ------- null}
- -t 1.30792 -s 1 -d 0 -p ack -e 40 -c 1 -i 68 -a 1 -x {1.1 0.0 21 ------- null}
h -t 1.30792 -s 1 -d 0 -p ack -e 40 -c 1 -i 68 -a 1 -x {1.1 0.0 -1 ------- null}
r -t 1.30992 -s 1 -d 0 -p ack -e 40 -c 1 -i 65 -a 1 -x {1.1 0.0 19 ------- null}
+ -t 1.30992 -s 0 -d 1 -p tcp -e 1040 -c 1 -i 69 -a 1 -x {0.0 1.1 24 ------- null}
- -t 1.31456 -s 0 -d 1 -p tcp -e 1040 -c 1 -i 67 -a 1 -x {0.0 1.1 23 ------- null}
h -t 1.31456 -s 0 -d 1 -p tcp -e 1040 -c 1 -i 67 -a 1 -x {0.0 1.1 -1 ------- null}
r -t 1.31624 -s 0 -d 1 -p tcp -e 1040 -c 1 -i 63 -a 1 -x {0.0 1.1 21 ------- null}
+ -t 1.31624 -s 1 -d 0 -p ack -e 40 -c 1 -i 70 -a 1 -x {1.1 0.0 21 ------- null}
- -t 1.31624 -s 1 -d 0 -p ack -e 40 -c 1 -i 70 -a 1 -x {1.1 0.0 21 ------- null}
h -t 1.31624 -s 1 -d 0 -p ack -e 40 -c 1 -i 70 -a 1 -x {1.1 0.0 -1 ------- null}
r -t 1.31824 -s 1 -d 0 -p ack -e 40 -c 1 -i 68 -a 1 -x {1.1 0.0 21 ------- null}
+ -t 1.31824 -s 0 -d 1 -p tcp -e 1040 -c 1 -i 71 -a 1 -x {0.0 1.1 25 ------- null}
+ -t 1.31824 -s 0 -d 1 -p tcp -e 1040 -c 1 -i 72 -a 1 -x {0.0 1.1 26 ------- null}
- -t 1.32288 -s 0 -d 1 -p tcp -e 1040 -c 1 -i 69 -a 1 -x {0.0 1.1 24 ------- null}
h -t 1.32288 -s 0 -d 1 -p tcp -e 1040 -c 1 -i 69 -a 1 -x {0.0 1.1 -1 ------- null}
r -t 1.32456 -s 0 -d 1 -p tcp -e 1040 -c 1 -i 66 -a 1 -x {0.0 1.1 22 ------- null}
+ -t 1.32456 -s 1 -d 0 -p ack -e 40 -c 1 -i 73 -a 1 -x {1.1 0.0 23 ------- null}
- -t 1.32456 -s 1 -d 0 -p ack -e 40 -c 1 -i 73 -a 1 -x {1.1 0.0 23 ------- null}
h -t 1.32456 -s 1 -d 0 -p ack -e 40 -c 1 -i 73 -a 1 -x {1.1 0.0 -1 ------- null}
r -t 1.32656 -s 1 -d 0 -p ack -e 40 -c 1 -i 70 -a 1 -x {1.1 0.0 21 ------- null}
+ -t 1.32656 -s 0 -d 1 -p tcp -e 1040 -c 1 -i 74 -a 1 -x {0.0 1.1 27 ------- null}
- -t 1.3312 -s 0 -d 1 -p tcp -e 1040 -c 1 -i 71 -a 1 -x {0.0 1.1 25 ------- null}
h -t 1.3312 -s 0 -d 1 -p tcp -e 1040 -c 1 -i 71 -a 1 -x {0.0 1.1 -1 ------- null}
r -t 1.33288 -s 0 -d 1 -p tcp -e 1040 -c 1 -i 67 -a 1 -x {0.0 1.1 23 ------- null}
+ -t 1.33288 -s 1 -d 0 -p ack -e 40 -c 1 -i 75 -a 1 -x {1.1 0.0 23 ------- null}
- -t 1.33288 -s 1 -d 0 -p ack -e 40 -c 1 -i 75 -a 1 -x {1.1 0.0 23 ------- null}
h -t 1.33288 -s 1 -d 0 -p ack -e 40 -c 1 -i 75 -a 1 -x {1.1 0.0 -1 ------- null}
r -t 1.33488 -s 1 -d 0 -p ack -e 40 -c 1 -i 73 -a 1 -x {1.1 0.0 23 ------- null}
+ -t 1.33488 -s 0 -d 1 -p tcp -e 1040 -c 1 -i 76 -a 1 -x {0.0 1.1 28 ------- null}
+ -t 1.33488 -s 0 -d 1 -p tcp -e 1040 -c 1 -i 77 -a 1 -x {0.0 1.1 29 ------- null}
- -t 1.33952 -s 0 -d 1 -p tcp -e 1040 -c 1 -i 72 -a 1 -x {0.0 1.1 26 ------- null}
h -t 1.33952 -s 0 -d 1 -p tcp -e 1040 -c 1 -i 72 -a 1 -x {0.0 1.1 -1 ------- null}
r -t 1.3412 -s 0 -d 1 -p tcp -e 1040 -c 1 -i 69 -a 1 -x {0.0 1.1 24 ------- null}
+ -t 1.3412 -s 1 -d 0 -p ack -e 40 -c 1 -i 78 -a 1 -x {1.1 0.0 25 ------- null}
- -t 1.3412 -s 1 -d 0 -p ack -e 40 -c 1 -i 78 -a 1 -x {1.1 0.0 25 ------- null}
h -t 1.3412 -s 1 -d 0 -p ack -e 40 -c 1 -i 78 -a 1 -x {1.1 0.0 -1 ------- null}
r -t 1.3432 -s 1 -d 0 -p ack -e 40 -c 1 -i 75 -a 1 -x {1.1 0.0 23 ------- null}
+ -t 1.3432 -s 0 -d 1 -p tcp -e 1040 -c 1 -i 79 -a 1 -x {0.0 1.1 30 ------- null}
- -t 1.34784 -s 0 -d 1 -p tcp -e 1040 -c 1 -i 74 -a 1 -x {0.0 1.1 27 ------- null}
h -t 1.34784 -s 0 -d 1 -p tcp -e 1040 -c 1 -i 74 -a 1 -x {0.0 1.1 -1 ------- null}
r -t 1.34952 -s 0 -d 1 -p tcp -e 1040 -c 1 -i 71 -a 1 -x {0.0 1.1 25 ------- null}
+ -t 1.34952 -s 1 -d 0 -p ack -e 40 -c 1 -i 80 -a 1 -x {1.1 0.0 25 ------- null}
- -t 1.34952 -s 1 -d 0 -p ack -e 40 -c 1 -i 80 -a 1 -x {1.1 0.0 25 ------- null}
h -t 1.34952 -s 1 -d 0 -p ack -e 40 -c 1 -i 80 -a 1 -x {1.1 0.0 -1 ------- null}
r -t 1.35152 -s 1 -d 0 -p ack -e 40 -c 1 -i 78 -a 1 -x {1.1 0.0 25 ------- null}
+ -t 1.35152 -s 0 -d 1 -p tcp -e 1040 -c 1 -i 81 -a 1 -x {0.0 1.1 31 ------- null}
+ -t 1.35152 -s 0 -d 1 -p tcp -e 1040 -c 1 -i 82 -a 1 -x {0.0 1.1 32 ------- null}
d -t 1.35152 -s 0 -d 1 -p tcp -e 1040 -c 1 -i 82 -a 1 -x {0.0 1.1 32 ------- null}
- -t 1.35616 -s 0 -d 1 -p tcp -e 1040 -c 1 -i 76 -a 1 -x {0.0 1.1 28 ------- null}
h -t 1.35616 -s 0 -d 1 -p tcp -e 1040 -c 1 -i 76 -a 1 -x {0.0 1.1 -1 ------- null}
r -t 1.35784 -s 0 -d 1 -p tcp -e 1040 -c 1 -i 72 -a 1 -x {0.0 1.1 26 ------- null}
+ -t 1.35784 -s 1 -d 0 -p ack -e 40 -c 1 -i 83 -a 1 -x {1.1 0.0 27 ------- null}
- -t 1.35784 -s 1 -d 0 -p ack -e 40 -c 1 -i 83 -a 1 -x {1.1 0.0 27 ------- null}
h -t 1.35784 -s 1 -d 0 -p ack -e 40 -c 1 -i 83 -a 1 -x {1.1 0.0 -1 ------- null}
r -t 1.35984 -s 1 -d 0 -p ack -e 40 -c 1 -i 80 -a 1 -x {1.1 0.0 25 ------- null}
+ -t 1.35984 -s 0 -d 1 -p tcp -e 1040 -c 1 -i 84 -a 1 -x {0.0 1.1 33 ------- null}
- -t 1.36448 -s 0 -d 1 -p tcp -e 1040 -c 1 -i 77 -a 1 -x {0.0 1.1 29 ------- null}
h -t 1.36448 -s 0 -d 1 -p tcp -e 1040 -c 1 -i 77 -a 1 -x {0.0 1.1 -1 ------- null}
r -t 1.36616 -s 0 -d 1 -p tcp -e 1040 -c 1 -i 74 -a 1 -x {0.0 1.1 27 ------- null}
+ -t 1.36616 -s 1 -d 0 -p ack -e 40 -c 1 -i 85 -a 1 -x {1.1 0.0 27 ------- null}
- -t 1.36616 -s 1 -d 0 -p ack -e 40 -c 1 -i 85 -a 1 -x {1.1 0.0 27 ------- null}
h -t 1.36616 -s 1 -d 0 -p ack -e 40 -c 1 -i 85 -a 1 -x {1.1 0.0 -1 ------- null}
r -t 1.36816 -s 1 -d 0 -p ack -e 40 -c 1 -i 83 -a 1 -x {1.1 0.0 27 ------- null}
+ -t 1.36816 -s 0 -d 1 -p tcp -e 1040 -c 1 -i 86 -a 1 -x {0.0 1.1 34 ------- null}
- -t 1.3728 -s 0 -d 1 -p tcp -e 1040 -c 1 -i 79 -a 1 -x {0.0 1.1 30 ------- null}
h -t 1.3728 -s 0 -d 1 -p tcp -e 1040 -c 1 -i 79 -a 1 -x {0.0 1.1 -1 ------- null}
r -t 1.37448 -s 0 -d 1 -p tcp -e 1040 -c 1 -i 76 -a 1 -x {0.0 1.1 28 ------- null}
+ -t 1.37448 -s 1 -d 0 -p ack -e 40 -c 1 -i 87 -a 1 -x {1.1 0.0 30 ------- null}
- -t 1.37448 -s 1 -d 0 -p ack -e 40 -c 1 -i 87 -a 1 -x {1.1 0.0 30 ------- null}
h -t 1.37448 -s 1 -d 0 -p ack -e 40 -c 1 -i 87 -a 1 -x {1.1 0.0 -1 ------- null}
r -t 1.37648 -s 1 -d 0 -p ack -e 40 -c 1 -i 85 -a 1 -x {1.1 0.0 27 ------- null}
+ -t 1.37648 -s 0 -d 1 -p tcp -e 1040 -c 1 -i 88 -a 1 -x {0.0 1.1 35 ------- null}
- -t 1.38112 -s 0 -d 1 -p tcp -e 1040 -c 1 -i 81 -a 1 -x {0.0 1.1 31 ------- null}
h -t 1.38112 -s 0 -d 1 -p tcp -e 1040 -c 1 -i 81 -a 1 -x {0.0 1.1 -1 ------- null}
r -t 1.3828 -s 0 -d 1 -p tcp -e 1040 -c 1 -i 77 -a 1 -x {0.0 1.1 29 ------- null}
+ -t 1.3828 -s 1 -d 0 -p ack -e 40 -c 1 -i 89 -a 1 -x {1.1 0.0 30 ------- null}
- -t 1.3828 -s 1 -d 0 -p ack -e 40 -c 1 -i 89 -a 1 -x {1.1 0.0 30 ------- null}
h -t 1.3828 -s 1 -d 0 -p ack -e 40 -c 1 -i 89 -a 1 -x {1.1 0.0 -1 ------- null}
r -t 1.3848 -s 1 -d 0 -p ack -e 40 -c 1 -i 87 -a 1 -x {1.1 0.0 30 ------- null}
+ -t 1.3848 -s 0 -d 1 -p tcp -e 1040 -c 1 -i 90 -a 1 -x {0.0 1.1 36 ------- null}
+ -t 1.3848 -s 0 -d 1 -p tcp -e 1040 -c 1 -i 91 -a 1 -x {0.0 1.1 37 ------- null}
d -t 1.3848 -s 0 -d 1 -p tcp -e 1040 -c 1 -i 91 -a 1 -x {0.0 1.1 37 ------- null}
- -t 1.38944 -s 0 -d 1 -p tcp -e 1040 -c 1 -i 84 -a 1 -x {0.0 1.1 33 ------- null}
h -t 1.38944 -s 0 -d 1 -p tcp -e 1040 -c 1 -i 84 -a 1 -x {0.0 1.1 -1 ------- null}
r -t 1.39112 -s 0 -d 1 -p tcp -e 1040 -c 1 -i 79 -a 1 -x {0.0 1.1 30 ------- null}
+ -t 1.39112 -s 1 -d 0 -p ack -e 40 -c 1 -i 92 -a 1 -x {1.1 0.0 30 ------- null}
- -t 1.39112 -s 1 -d 0 -p ack -e 40 -c 1 -i 92 -a 1 -x {1.1 0.0 30 ------- null}
h -t 1.39112 -s 1 -d 0 -p ack -e 40 -c 1 -i 92 -a 1 -x {1.1 0.0 -1 ------- null}
r -t 1.39312 -s 1 -d 0 -p ack -e 40 -c 1 -i 89 -a 1 -x {1.1 0.0 30 ------- null}
+ -t 1.39312 -s 0 -d 1 -p tcp -e 1040 -c 1 -i 93 -a 1 -x {0.0 1.1 38 ------- null}
- -t 1.39776 -s 0 -d 1 -p tcp -e 1040 -c 1 -i 86 -a 1 -x {0.0 1.1 34 ------- null}
h -t 1.39776 -s 0 -d 1 -p tcp -e 1040 -c 1 -i 86 -a 1 -x {0.0 1.1 -1 ------- null}
r -t 1.39944 -s 0 -d 1 -p tcp -e 1040 -c 1 -i 81 -a 1 -x {0.0 1.1 31 ------- null}
+ -t 1.39944 -s 1 -d 0 -p ack -e 40 -c 1 -i 94 -a 1 -x {1.1 0.0 31 ------- null}
- -t 1.39944 -s 1 -d 0 -p ack -e 40 -c 1 -i 94 -a 1 -x {1.1 0.0 31 ------- null}
h -t 1.39944 -s 1 -d 0 -p ack -e 40 -c 1 -i 94 -a 1 -x {1.1 0.0 -1 ------- null}
r -t 1.40144 -s 1 -d 0 -p ack -e 40 -c 1 -i 92 -a 1 -x {1.1 0.0 30 ------- null}
+ -t 1.40144 -s 0 -d 1 -p tcp -e 1040 -c 1 -i 95 -a 1 -x {0.0 1.1 39 ------- null}
- -t 1.40608 -s 0 -d 1 -p tcp -e 1040 -c 1 -i 88 -a 1 -x {0.0 1.1 35 ------- null}
h -t 1.40608 -s 0 -d 1 -p tcp -e 1040 -c 1 -i 88 -a 1 -x {0.0 1.1 -1 ------- null}
r -t 1.40776 -s 0 -d 1 -p tcp -e 1040 -c 1 -i 84 -a 1 -x {0.0 1.1 33 ------- null}
+ -t 1.40776 -s 1 -d 0 -p ack -e 40 -c 1 -i 96 -a 1 -x {1.1 0.0 31 ------- null}
- -t 1.40776 -s 1 -d 0 -p ack -e 40 -c 1 -i 96 -a 1 -x {1.1 0.0 31 ------- null}
h -t 1.40776 -s 1 -d 0 -p ack -e 40 -c 1 -i 96 -a 1 -x {1.1 0.0 -1 ------- null}
r -t 1.40976 -s 1 -d 0 -p ack -e 40 -c 1 -i 94 -a 1 -x {1.1 0.0 31 ------- null}
- -t 1.4144 -s 0 -d 1 -p tcp -e 1040 -c 1 -i 90 -a 1 -x {0.0 1.1 36 ------- null}
h -t 1.4144 -s 0 -d 1 -p tcp -e 1040 -c 1 -i 90 -a 1 -x {0.0 1.1 -1 ------- null}
r -t 1.41608 -s 0 -d 1 -p tcp -e 1040 -c 1 -i 86 -a 1 -x {0.0 1.1 34 ------- null}