+ 1 0 1 tcp 40 ------- 1 0.0 1.1 0 0
- 1 0 1 tcp 40 ------- 1 0.0 1.1 0 0
r 1.01032 0 1 tcp 40 ------- 1 0.0 1.1 0 0
+ 1.01032 1 0 ack 40 ------- 1 1.1 0.0 0 1
- 1.01032 1 0 ack 40 ------- 1 1.1 0.0 0 1
r 1.02064 1 0 ack 40 ------- 1 1.1 0.0 0 1
+ 1.02064 0 1 tcp 1040 ------- 1 0.0 1.1 1 2
- 1.02064 0 1 tcp 1040 ------- 1 0.0 1.1 1 2
+ 1.02064 0 1 tcp 1040 ------- 1 0.0 1.1 2 3
- 1.02896 0 1 tcp 1040 ------- 1 0.0 1.1 2 3
r 1.03896 0 1 tcp 1040 ------- 1 0.0 1.1 1 2
+ 1.03896 1 0 ack 40 ------- 1 1.1 0.0 1 4
- 1.03896 1 0 ack 40 ------- 1 1.1 0.0 1 4
r 1.04728 0 1 tcp 1040 ------- 1 0.0 1.1 2 3
+ 1.04728 1 0 ack 40 ------- 1 1.1 0.0 2 5
- 1.04728 1 0 ack 40 ------- 1 1.1 0.0 2 5
r 1.04928 1 0 ack 40 ------- 1 1.1 0.0 1 4
+ 1.04928 0 1 tcp 1040 ------- 1 0.0 1.1 3 6
- 1.04928 0 1 tcp 1040 ------- 1 0.0 1.1 3 6
+ 1.04928 0 1 tcp 1040 ------- 1 0.0 1.1 4 7
r 1.0576 1 0 ack 40 ------- 1 1.1 0.0 2 5
+ 1.0576 0 1 tcp 1040 ------- 1 0.0 1.1 5 8
+ 1.0576 0 1 tcp 1040 ------- 1 0.0 1.1 6 9
- 1.0576 0 1 tcp 1040 ------- 1 0.0 1.1 4 7
- 1.06592 0 1 tcp 1040 ------- 1 0.0 1.1 5 8
r 1.0676 0 1 tcp 1040 ------- 1 0.0 1.1 3 6
+ 1.0676 1 0 ack 40 ------- 1 1.1 0.0 3 10
- 1.0676 1 0 ack 40 ------- 1 1.1 0.0 3 10
- 1.07424 0 1 tcp 1040 ------- 1 0.0 1.1 6 9
r 1.07592 0 1 tcp 1040 ------- 1 0.0 1.1 4 7
+ 1.07592 1 0 ack 40 ------- 1 1.1 0.0 4 11
- 1.07592 1 0 ack 40 ------- 1 1.1 0.0 4 11
r 1.07792 1 0 ack 40 ------- 1 1.1 0.0 3 10
+ 1.07792 0 1 tcp 1040 ------- 1 0.0 1.1 7 12
+ 1.07792 0 1 tcp 1040 ------- 1 0.0 1.1 8 13
- 1.08256 0 1 tcp 1040 ------- 1 0.0 1.1 7 12
r 1.08424 0 1 tcp 1040 ------- 1 0.0 1.1 5 8
+ 1.08424 1 0 ack 40 ------- 1 1.1 0.0 5 14
- 1.08424 1 0 ack 40 ------- 1 1.1 0.0 5 14
r 1.08624 1 0 ack 40 ------- 1 1.1 0.0 4 11
+ 1.08624 0 1 tcp 1040 ------- 1 0.0 1.1 9 15
+ 1.08624 0 1 tcp 1040 ------- 1 0.0 1.1 10 16
- 1.09088 0 1 tcp 1040 ------- 1 0.0 1.1 8 13
r 1.09256 0 1 tcp 1040 ------- 1 0.0 1.1 6 9
+ 1.09256 1 0 ack 40 ------- 1 1.1 0.0 6 17
- 1.09256 1 0 ack 40 ------- 1 1.1 0.0 6 17
r 1.09456 1 0 ack 40 ------- 1 1.1 0.0 5 14
+ 1.09456 0 1 tcp 1040 ------- 1 0.0 1.1 11 18
+ 1.09456 0 1 tcp 1040 ------- 1 0.0 1.1 12 19
- 1.0992 0 1 tcp 1040 ------- 1 0.0 1.1 9 15
r 1.10088 0 1 tcp 1040 ------- 1 0.0 1.1 7 12
+ 1.10088 1 0 ack 40 ------- 1 1.1 0.0 7 20
- 1.10088 1 0 ack 40 ------- 1 1.1 0.0 7 20
r 1.10288 1 0 ack 40 ------- 1 1.1 0.0 6 17
+ 1.10288 0 1 tcp 1040 ------- 1 0.0 1.1 13 21
+ 1.10288 0 1 tcp 1040 ------- 1 0.0 1.1 14 22
d 1.10288 0 1 tcp 1040 ------- 1 0.0 1.1 14 22
- 1.10752 0 1 tcp 1040 ------- 1 0.0 1.1 10 16
r 1.1092 0 1 tcp 1040 ------- 1 0.0 1.1 8 13
+ 1.1092 1 0 ack 40 ------- 1 1.1 0.0 8 23
- 1.1092 1 0 ack 40 ------- 1 1.1 0.0 8 23
r 1.1112 1 0 ack 40 ------- 1 1.1 0.0 7 20
+ 1.1112 0 1 tcp 1040 ------- 1 0.0 1.1 15 24
+ 1.1112 0 1 tcp 1040 ------- 1 0.0 1.1 16 25
d 1.1112 0 1 tcp 1040 ------- 1 0.0 1.1 16 25
- 1.11584 0 1 tcp 1040 ------- 1 0.0 1.1 11 18
r 1.11752 0 1 tcp 1040 ------- 1 0.0 1.1 9 15
+ 1.11752 1 0 ack 40 ------- 1 1.1 0.0 9 26
- 1.11752 1 0 ack 40 ------- 1 1.1 0.0 9 26
r 1.11952 1 0 ack 40 ------- 1 1.1 0.0 8 23
+ 1.11952 0 1 tcp 1040 ------- 1 0.0 1.1 17 27
+ 1.11952 0 1 tcp 1040 ------- 1 0.0 1.1 18 28
d 1.11952 0 1 tcp 1040 ------- 1 0.0 1.1 18 28
- 1.12416 0 1 tcp 1040 ------- 1 0.0 1.1 12 19
r 1.12584 0 1 tcp 1040 ------- 1 0.0 1.1 10 16
+ 1.12584 1 0 ack 40 ------- 1 1.1 0.0 10 29
- 1.12584 1 0 ack 40 ------- 1 1.1 0.0 10 29
r 1.12784 1 0 ack 40 ------- 1 1.1 0.0 9 26
+ 1.12784 0 1 tcp 1040 ------- 1 0.0 1.1 19 30
+ 1.12784 0 1 tcp 1040 ------- 1 0.0 1.1 20 31
d 1.12784 0 1 tcp 1040 ------- 1 0.0 1.1 20 31
- 1.13248 0 1 tcp 1040 ------- 1 0.0 1.1 13 21
r 1.13416 0 1 tcp 1040 ------- 1 0.0 1.1 11 18
+ 1.13416 1 0 ack 40 ------- 1 1.1 0.0 11 32
- 1.13416 1 0 ack 40 ------- 1 1.1 0.0 11 32
r 1.13616 1 0 ack 40 ------- 1 1.1 0.0 10 29
+ 1.13616 0 1 tcp 1040 ------- 1 0.0 1.1 21 33
+ 1.13616 0 1 tcp 1040 ------- 1 0.0 1.1 22 34
d 1.13616 0 1 tcp 1040 ------- 1 0.0 1.1 22 34
- 1.1408 0 1 tcp 1040 ------- 1 0.0 1.1 15 24
r 1.14248 0 1 tcp 1040 ------- 1 0.0 1.1 12 19
+ 1.14248 1 0 ack 40 ------- 1 1.1 0.0 12 35
- 1.14248 1 0 ack 40 ------- 1 1.1 0.0 12 35
r 1.14448 1 0 ack 40 ------- 1 1.1 0.0 11 32
+ 1.14448 0 1 tcp 1040 ------- 1 0.0 1.1 23 36
+ 1.14448 0 1 tcp 1040 ------- 1 0.0 1.1 24 37
d 1.14448 0 1 tcp 1040 ------- 1 0.0 1.1 24 37
- 1.14912 0 1 tcp 1040 ------- 1 0.0 1.1 17 27
r 1.1508 0 1 tcp 1040 ------- 1 0.0 1.1 13 21
+ 1.1508 1 0 ack 40 ------- 1 1.1 0.0 13 38
- 1.1508 1 0 ack 40 ------- 1 1.1 0.0 13 38
r 1.1528 1 0 ack 40 ------- 1 1.1 0.0 12 35
+ 1.1528 0 1 tcp 1040 ------- 1 0.0 1.1 25 39
+ 1.1528 0 1 tcp 1040 ------- 1 0.0 1.1 26 40
d 1.1528 0 1 tcp 1040 ------- 1 0.0 1.1 26 40
- 1.15744 0 1 tcp 1040 ------- 1 0.0 1.1 19 30
r 1.15912 0 1 tcp 1040 ------- 1 0.0 1.1 15 24
+ 1.15912 1 0 ack 40 ------- 1 1.1 0.0 13 41
- 1.15912 1 0 ack 40 ------- 1 1.1 0.0 13 41
r 1.16112 1 0 ack 40 ------- 1 1.1 0.0 13 38
+ 1.16112 0 1 tcp 1040 ------- 1 0.0 1.1 27 42
+ 1.16112 0 1 tcp 1040 ------- 1 0.0 1.1 28 43
d 1.16112 0 1 tcp 1040 ------- 1 0.0 1.1 28 43
- 1.16576 0 1 tcp 1040 ------- 1 0.0 1.1 21 33
r 1.16744 0 1 tcp 1040 ------- 1 0.0 1.1 17 27
+ 1.16744 1 0 ack 40 ------- 1 1.1 0.0 13 44
- 1.16744 1 0 ack 40 ------- 1 1.1 0.0 13 44
r 1.16944 1 0 ack 40 ------- 1 1.1 0.0 13 41
+ 1.16944 0 1 tcp 1040 ------- 1 0.0 1.1 29 45
- 1.17408 0 1 tcp 1040 ------- 1 0.0 1.1 23 36
r 1.17576 0 1 tcp 1040 ------- 1 0.0 1.1 19 30
+ 1.17576 1 0 ack 40 ------- 1 1.1 0.0 13 46
- 1.17576 1 0 ack 40 ------- 1 1.1 0.0 13 46
r 1.17776 1 0 ack 40 ------- 1 1.1 0.0 13 44
+ 1.17776 0 1 tcp 1040 ------- 1 0.0 1.1 30 47
- 1.1824 0 1 tcp 1040 ------- 1 0.0 1.1 25 39
r 1.18408 0 1 tcp 1040 ------- 1 0.0 1.1 21 33
+ 1.18408 1 0 ack 40 ------- 1 1.1 0.0 13 48
- 1.18408 1 0 ack 40 ------- 1 1.1 0.0 13 48
r 1.18608 1 0 ack 40 ------- 1 1.1 0.0 13 46
+ 1.18608 0 1 tcp 1040 ---A--- 1 0.0 1.1 14 49
- 1.19072 0 1 tcp 1040 ------- 1 0.0 1.1 27 42
r 1.1924 0 1 tcp 1040 ------- 1 0.0 1.1 23 36
+ 1.1924 1 0 ack 40 ------- 1 1.1 0.0 13 50
- 1.1924 1 0 ack 40 ------- 1 1.1 0.0 13 50
r 1.1944 1 0 ack 40 ------- 1 1.1 0.0 13 48
- 1.19904 0 1 tcp 1040 ------- 1 0.0 1.1 29 45
r 1.20072 0 1 tcp 1040 ------- 1 0.0 1.1 25 39
+ 1.20072 1 0 ack 40 ------- 1 1.1 0.0 13 51
- 1.20072 1 0 ack 40 ------- 1 1.1 0.0 13 51
r 1.20272 1 0 ack 40 ------- 1 1.1 0.0 13 50
- 1.20736 0 1 tcp 1040 ------- 1 0.0 1.1 30 47
r 1.20904 0 1 tcp 1040 ------- 1 0.0 1.1 27 42
+ 1.20904 1 0 ack 40 ------- 1 1.1 0.0 13 52
- 1.20904 1 0 ack 40 ------- 1 1.1 0.0 13 52
r 1.21104 1 0 ack 40 ------- 1 1.1 0.0 13 51
- 1.21568 0 1 tcp 1040 ---A--- 1 0.0 1.1 14 49
r 1.21736 0 1 tcp 1040 ------- 1 0.0 1.1 29 45
+ 1.21736 1 0 ack 40 ------- 1 1.1 0.0 13 53
- 1.21736 1 0 ack 40 ------- 1 1.1 0.0 13 53
r 1.21936 1 0 ack 40 ------- 1 1.1 0.0 13 52
r 1.22568 0 1 tcp 1040 ------- 1 0.0 1.1 30 47
+ 1.22568 1 0 ack 40 ------- 1 1.1 0.0 13 54
- 1.22568 1 0 ack 40 ------- 1 1.1 0.0 13 54
r 1.22768 1 0 ack 40 ------- 1 1.1 0.0 13 53
r 1.234 0 1 tcp 1040 ---A--- 1 0.0 1.1 14 49
+ 1.234 1 0 ack 40 ------- 1 1.1 0.0 15 55
- 1.234 1 0 ack 40 ------- 1 1.1 0.0 15 55
r 1.236 1 0 ack 40 ------- 1 1.1 0.0 13 54
r 1.24432 1 0 ack 40 ------- 1 1.1 0.0 15 55
+ 1.24432 0 1 tcp 1040 ------- 1 0.0 1.1 16 56
- 1.24432 0 1 tcp 1040 ------- 1 0.0 1.1 16 56
+ 1.24432 0 1 tcp 1040 ------- 1 0.0 1.1 17 57
- 1.25264 0 1 tcp 1040 ------- 1 0.0 1.1 17 57
r 1.26264 0 1 tcp 1040 ------- 1 0.0 1.1 16 56
+ 1.26264 1 0 ack 40 ------- 1 1.1 0.0 17 58
- 1.26264 1 0 ack 40 ------- 1 1.1 0.0 17 58
r 1.27096 0 1 tcp 1040 ------- 1 0.0 1.1 17 57
+ 1.27096 1 0 ack 40 ------- 1 1.1 0.0 17 59
- 1.27096 1 0 ack 40 ------- 1 1.1 0.0 17 59
r 1.27296 1 0 ack 40 ------- 1 1.1 0.0 17 58
+ 1.27296 0 1 tcp 1040 ------- 1 0.0 1.1 18 60
- 1.27296 0 1 tcp 1040 ------- 1 0.0 1.1 18 60
+ 1.27296 0 1 tcp 1040 ------- 1 0.0 1.1 19 61
+ 1.27296 0 1 tcp 1040 ------- 1 0.0 1.1 20 62
r 1.28128 1 0 ack 40 ------- 1 1.1 0.0 17 59
+ 1.28128 0 1 tcp 1040 ------- 1 0.0 1.1 21 63
- 1.28128 0 1 tcp 1040 ------- 1 0.0 1.1 19 61
- 1.2896 0 1 tcp 1040 ------- 1 0.0 1.1 20 62
r 1.29128 0 1 tcp 1040 ------- 1 0.0 1.1 18 60
+ 1.29128 1 0 ack 40 ------- 1 1.1 0.0 19 64
- 1.29128 1 0 ack 40 ------- 1 1.1 0.0 19 64
- 1.29792 0 1 tcp 1040 ------- 1 0.0 1.1 21 63
r 1.2996 0 1 tcp 1040 ------- 1 0.0 1.1 19 61
+ 1.2996 1 0 ack 40 ------- 1 1.1 0.0 19 65
- 1.2996 1 0 ack 40 ------- 1 1.1 0.0 19 65
r 1.3016 1 0 ack 40 ------- 1 1.1 0.0 19 64
+ 1.3016 0 1 tcp 1040 ------- 1 0.0 1.1 22 66
+ 1.3016 0 1 tcp 1040 ------- 1 0.0 1.1 23 67
- 1.30624 0 1 tcp 1040 ------- 1 0.0 1.1 22 66
r 1.30792 0 1 tcp 1040 ------- 1 0.0 1.1 20 62
+ 1.30792 1 0 ack 40 ------- 1 1.1 0.0 21 68
- 1.30792 1 0 ack 40 ------- 1 1.1 0.0 21 68
r 1.30992 1 0 ack 40 ------- 1 1.1 0.0 19 65
+ 1.30992 0 1 tcp 1040 ------- 1 0.0 1.1 24 69
- 1.31456 0 1 tcp 1040 ------- 1 0.0 1.1 23 67
r 1.31624 0 1 tcp 1040 ------- 1 0.0 1.1 21 63
+ 1.31624 1 0 ack 40 ------- 1 1.1 0.0 21 70
- 1.31624 1 0 ack 40 ------- 1 1.1 0.0 21 70
r 1.31824 1 0 ack 40 ------- 1 1.1 0.0 21 68
+ 1.31824 0 1 tcp 1040 ------- 1 0.0 1.1 25 71
+ 1.31824 0 1 tcp 1040 ------- 1 0.0 1.1 26 72
- 1.32288 0 1 tcp 1040 ------- 1 0.0 1.1 24 69
r 1.32456 0 1 tcp 1040 ------- 1 0.0 1.1 22 66
+ 1.32456 1 0 ack 40 ------- 1 1.1 0.0 23 73
- 1.32456 1 0 ack 40 ------- 1 1.1 0.0 23 73
r 1.32656 1 0 ack 40 ------- 1 1.1 0.0 21 70
+ 1.32656 0 1 tcp 1040 ------- 1 0.0 1.1 27 74
- 1.3312 0 1 tcp 1040 ------- 1 0.0 1.1 25 71
r 1.33288 0 1 tcp 1040 ------- 1 0.0 1.1 23 67
+ 1.33288 1 0 ack 40 ------- 1 1.1 0.0 23 75
- 1.33288 1 0 ack 40 ------- 1 1.1 0.0 23 75
r 1.33488 1 0 ack 40 ------- 1 1.1 0.0 23 73
+ 1.33488 0 1 tcp 1040 ------- 1 0.0 1.1 28 76
+ 1.33488 0 1 tcp 1040 ------- 1 0.0 1.1 29 77
- 1.33952 0 1 tcp 1040 ------- 1 0.0 1.1 26 72
r 1.3412 0 1 tcp 1040 ------- 1 0.0 1.1 24 69
+ 1.3412 1 0 ack 40 ------- 1 1.1 0.0 25 78
- 1.3412 1 0 ack 40 ------- 1 1.1 0.0 25 78
r 1.3432 1 0 ack 40 ------- 1 1.1 0.0 23 75
+ 1.3432 0 1 tcp 1040 ------- 1 0.0 1.1 30 79
- 1.34784 0 1 tcp 1040 ------- 1 0.0 1.1 27 74
r 1.34952 0 1 tcp 1040 ------- 1 0.0 1.1 25 71
+ 1.34952 1 0 ack 40 ------- 1 1.1 0.0 25 80
- 1.34952 1 0 ack 40 ------- 1 1.1 0.0 25 80
r 1.35152 1 0 ack 40 ------- 1 1.1 0.0 25 78
+ 1.35152 0 1 tcp 1040 ------- 1 0.0 1.1 31 81
+ 1.35152 0 1 tcp 1040 ------- 1 0.0 1.1 32 82
d 1.35152 0 1 tcp 1040 ------- 1 0.0 1.1 32 82
- 1.35616 0 1 tcp 1040 ------- 1 0.0 1.1 28 76
r 1.35784 0 1 tcp 1040 ------- 1 0.0 1.1 26 72
+ 1.35784 1 0 ack 40 ------- 1 1.1 0.0 27 83
- 1.35784 1 0 ack 40 ------- 1 1.1 0.0 27 83
r 1.35984 1 0 ack 40 ------- 1 1.1 0.0 25 80
+ 1.35984 0 1 tcp 1040 ------- 1 0.0 1.1 33 84
- 1.36448 0 1 tcp 1040 ------- 1 0.0 1.1 29 77
r 1.36616 0 1 tcp 1040 ------- 1 0.0 1.1 27 74
+ 1.36616 1 0 ack 40 ------- 1 1.1 0.0 27 85
- 1.36616 1 0 ack 40 ------- 1 1.1 0.0 27 85
r 1.36816 1 0 ack 40 ------- 1 1.1 0.0 27 83
+ 1.36816 0 1 tcp 1040 ------- 1 0.0 1.1 34 86
- 1.3728 0 1 tcp 1040 ------- 1 0.0 1.1 30 79
r 1.37448 0 1 tcp 1040 ------- 1 0.0 1.1 28 76
+ 1.37448 1 0 ack 40 ------- 1 1.1 0.0 30 87
- 1.37448 1 0 ack 40 ------- 1 1.1 0.0 30 87
r 1.37648 1 0 ack 40 ------- 1 1.1 0.0 27 85
+ 1.37648 0 1 tcp 1040 ------- 1 0.0 1.1 35 88
- 1.38112 0 1 tcp 1040 ------- 1 0.0 1.1 31 81
r 1.3828 0 1 tcp 1040 ------- 1 0.0 1.1 29 77
+ 1.3828 1 0 ack 40 ------- 1 1.1 0.0 30 89
- 1.3828 1 0 ack 40 ------- 1 1.1 0.0 30 89
r 1.3848 1 0 ack 40 ------- 1 1.1 0.0 30 87
+ 1.3848 0 1 tcp 1040 ------- 1 0.0 1.1 36 90
+ 1.3848 0 1 tcp 1040 ------- 1 0.0 1.1 37 91
d 1.3848 0 1 tcp 1040 ------- 1 0.0 1.1 37 91
- 1.38944 0 1 tcp 1040 ------- 1 0.0 1.1 33 84
r 1.39112 0 1 tcp 1040 ------- 1 0.0 1.1 30 79
+ 1.39112 1 0 ack 40 ------- 1 1.1 0.0 30 92
- 1.39112 1 0 ack 40 ------- 1 1.1 0.0 30 92
r 1.39312 1 0 ack 40 ------- 1 1.1 0.0 30 89
+ 1.39312 0 1 tcp 1040 ------- 1 0.0 1.1 38 93
- 1.39776 0 1 tcp 1040 ------- 1 0.0 1.1 34 86
r 1.39944 0 1 tcp 1040 ------- 1 0.0 1.1 31 81
+ 1.39944 1 0 ack 40 ------- 1 1.1 0.0 31 94
- 1.39944 1 0 ack 40 ------- 1 1.1 0.0 31 94
r 1.40144 1 0 ack 40 ------- 1 1.1 0.0 30 92
+ 1.40144 0 1 tcp 1040 ------- 1 0.0 1.1 39 95
- 1.40608 0 1 tcp 1040 ------- 1 0.0 1.1 35 88
r 1.40776 0 1 tcp 1040 ------- 1 0.0 1.1 33 84
+ 1.40776 1 0 ack 40 ------- 1 1.1 0.0 31 96
- 1.40776 1 0 ack 40 ------- 1 1.1 0.0 31 96
r 1.40976 1 0 ack 40 ------- 1 1.1 0.0 31 94
- 1.4144 0 1 tcp 1040 ------- 1 0.0 1.1 36 90
r 1.41608 0 1 tcp 1040 ------- 1 0.0 1.1 34 86
+ 1.41608 1 0 ack 40 ------- 1 1.1 0.0 31 97
- 1.41608 1 0 ack 40 ------- 1 1.1 0.0 31 97
r 1.41808 1 0 ack 40 ------- 1 1.1 0.0 31 96
- 1.42272 0 1 tcp 1040 ------- 1 0.0 1.1 38 93
r 1.4244 0 1 tcp 1040 ------- 1 0.0 1.1 35 88
+ 1.4244 1 0 ack 40 ------- 1 1.1 0.0 31 98
- 1.4244 1 0 ack 40 ------- 1 1.1 0.0 31 98
r 1.4264 1 0 ack 40 ------- 1 1.1 0.0 31 97
+ 1.4264 0 1 tcp 1040 ------- 1 0.0 1.1 40 99
- 1.43104 0 1 tcp 1040 ------- 1 0.0 1.1 39 95
r 1.43272 0 1 tcp 1040 ------- 1 0.0 1.1 36 90
+ 1.43272 1 0 ack 40 ------- 1 1.1 0.0 31 100
- 1.43272 1 0 ack 40 ------- 1 1.1 0.0 31 100
r 1.43472 1 0 ack 40 ------- 1 1.1 0.0 31 98
+ 1.43472 0 1 tcp 1040 ---A--- 1 0.0 1.1 32 101
- 1.43936 0 1 tcp 1040 ------- 1 0.0 1.1 40 99
r 1.44104 0 1 tcp 1040 ------- 1 0.0 1.1 38 93
+ 1.44104 1 0 ack 40 ------- 1 1.1 0.0 31 102
- 1.44104 1 0 ack 40 ------- 1 1.1 0.0 31 102
r 1.44304 1 0 ack 40 ------- 1 1.1 0.0 31 100
- 1.44768 0 1 tcp 1040 ---A--- 1 0.0 1.1 32 101
r 1.44936 0 1 tcp 1040 ------- 1 0.0 1.1 39 95
+ 1.44936 1 0 ack 40 ------- 1 1.1 0.0 31 103
- 1.44936 1 0 ack 40 ------- 1 1.1 0.0 31 103
r 1.45136 1 0 ack 40 ------- 1 1.1 0.0 31 102
r 1.45768 0 1 tcp 1040 ------- 1 0.0 1.1 40 99
+ 1.45768 1 0 ack 40 ------- 1 1.1 0.0 31 104
- 1.45768 1 0 ack 40 ------- 1 1.1 0.0 31 104
r 1.45968 1 0 ack 40 ------- 1 1.1 0.0 31 103
r 1.466 0 1 tcp 1040 ---A--- 1 0.0 1.1 32 101
+ 1.466 1 0 ack 40 ------- 1 1.1 0.0 36 105
- 1.466 1 0 ack 40 ------- 1 1.1 0.0 36 105
r 1.468 1 0 ack 40 ------- 1 1.1 0.0 31 104
r 1.47632 1 0 ack 40 ------- 1 1.1 0.0 36 105
+ 1.47632 0 1 tcp 1040 ------- 1 0.0 1.1 37 106
- 1.47632 0 1 tcp 1040 ------- 1 0.0 1.1 37 106
+ 1.47632 0 1 tcp 1040 ------- 1 0.0 1.1 38 107
- 1.48464 0 1 tcp 1040 ------- 1 0.0 1.1 38 107
r 1.49464 0 1 tcp 1040 ------- 1 0.0 1.1 37 106
+ 1.49464 1 0 ack 40 ------- 1 1.1 0.0 40 108
- 1.49464 1 0 ack 40 ------- 1 1.1 0.0 40 108
r 1.50296 0 1 tcp 1040 ------- 1 0.0 1.1 38 107
+ 1.50296 1 0 ack 40 ------- 1 1.1 0.0 40 109
- 1.50296 1 0 ack 40 ------- 1 1.1 0.0 40 109
r 1.50496 1 0 ack 40 ------- 1 1.1 0.0 40 108
+ 1.50496 0 1 tcp 1040 ------- 1 0.0 1.1 41 110
- 1.50496 0 1 tcp 1040 ------- 1 0.0 1.1 41 110
+ 1.50496 0 1 tcp 1040 ------- 1 0.0 1.1 42 111
+ 1.50496 0 1 tcp 1040 ------- 1 0.0 1.1 43 112
r 1.51328 1 0 ack 40 ------- 1 1.1 0.0 40 109
+ 1.51328 0 1 tcp 1040 ------- 1 0.0 1.1 44 113
- 1.51328 0 1 tcp 1040 ------- 1 0.0 1.1 42 111
- 1.5216 0 1 tcp 1040 ------- 1 0.0 1.1 43 112
r 1.52328 0 1 tcp 1040 ------- 1 0.0 1.1 41 110
+ 1.52328 1 0 ack 40 ------- 1 1.1 0.0 41 114
- 1.52328 1 0 ack 40 ------- 1 1.1 0.0 41 114
- 1.52992 0 1 tcp 1040 ------- 1 0.0 1.1 44 113
r 1.5316 0 1 tcp 1040 ------- 1 0.0 1.1 42 111
+ 1.5316 1 0 ack 40 ------- 1 1.1 0.0 42 115
- 1.5316 1 0 ack 40 ------- 1 1.1 0.0 42 115
r 1.5336 1 0 ack 40 ------- 1 1.1 0.0 41 114
r 1.53992 0 1 tcp 1040 ------- 1 0.0 1.1 43 112
+ 1.53992 1 0 ack 40 ------- 1 1.1 0.0 43 116
- 1.53992 1 0 ack 40 ------- 1 1.1 0.0 43 116
r 1.54192 1 0 ack 40 ------- 1 1.1 0.0 42 115
+ 1.54192 0 1 tcp 1040 ------- 1 0.0 1.1 45 117
- 1.54192 0 1 tcp 1040 ------- 1 0.0 1.1 45 117
r 1.54824 0 1 tcp 1040 ------- 1 0.0 1.1 44 113
+ 1.54824 1 0 ack 40 ------- 1 1.1 0.0 44 118
- 1.54824 1 0 ack 40 ------- 1 1.1 0.0 44 118
r 1.55024 1 0 ack 40 ------- 1 1.1 0.0 43 116
+ 1.55024 0 1 tcp 1040 ------- 1 0.0 1.1 46 119
- 1.55024 0 1 tcp 1040 ------- 1 0.0 1.1 46 119
r 1.55856 1 0 ack 40 ------- 1 1.1 0.0 44 118
+ 1.55856 0 1 tcp 1040 ------- 1 0.0 1.1 47 120
+ 1.55856 0 1 tcp 1040 ------- 1 0.0 1.1 48 121
- 1.55856 0 1 tcp 1040 ------- 1 0.0 1.1 47 120
r 1.56024 0 1 tcp 1040 ------- 1 0.0 1.1 45 117
+ 1.56024 1 0 ack 40 ------- 1 1.1 0.0 45 122
- 1.56024 1 0 ack 40 ------- 1 1.1 0.0 45 122
- 1.56688 0 1 tcp 1040 ------- 1 0.0 1.1 48 121
r 1.56856 0 1 tcp 1040 ------- 1 0.0 1.1 46 119
+ 1.56856 1 0 ack 40 ------- 1 1.1 0.0 46 123
- 1.56856 1 0 ack 40 ------- 1 1.1 0.0 46 123
r 1.57056 1 0 ack 40 ------- 1 1.1 0.0 45 122
+ 1.57056 0 1 tcp 1040 ------- 1 0.0 1.1 49 124
- 1.5752 0 1 tcp 1040 ------- 1 0.0 1.1 49 124
r 1.57688 0 1 tcp 1040 ------- 1 0.0 1.1 47 120
+ 1.57688 1 0 ack 40 ------- 1 1.1 0.0 47 125
- 1.57688 1 0 ack 40 ------- 1 1.1 0.0 47 125
r 1.57888 1 0 ack 40 ------- 1 1.1 0.0 46 123
+ 1.57888 0 1 tcp 1040 ------- 1 0.0 1.1 50 126
- 1.58352 0 1 tcp 1040 ------- 1 0.0 1.1 50 126
r 1.5852 0 1 tcp 1040 ------- 1 0.0 1.1 48 121
+ 1.5852 1 0 ack 40 ------- 1 1.1 0.0 48 127
- 1.5852 1 0 ack 40 ------- 1 1.1 0.0 48 127
r 1.5872 1 0 ack 40 ------- 1 1.1 0.0 47 125
+ 1.5872 0 1 tcp 1040 ------- 1 0.0 1.1 51 128
- 1.59184 0 1 tcp 1040 ------- 1 0.0 1.1 51 128
r 1.59352 0 1 tcp 1040 ------- 1 0.0 1.1 49 124
+ 1.59352 1 0 ack 40 ------- 1 1.1 0.0 49 129
- 1.59352 1 0 ack 40 ------- 1 1.1 0.0 49 129
r 1.59552 1 0 ack 40 ------- 1 1.1 0.0 48 127
+ 1.59552 0 1 tcp 1040 ------- 1 0.0 1.1 52 130
+ 1.59552 0 1 tcp 1040 ------- 1 0.0 1.1 53 131
- 1.60016 0 1 tcp 1040 ------- 1 0.0 1.1 52 130
r 1.60184 0 1 tcp 1040 ------- 1 0.0 1.1 50 126
+ 1.60184 1 0 ack 40 ------- 1 1.1 0.0 50 132
- 1.60184 1 0 ack 40 ------- 1 1.1 0.0 50 132
r 1.60384 1 0 ack 40 ------- 1 1.1 0.0 49 129
+ 1.60384 0 1 tcp 1040 ------- 1 0.0 1.1 54 133
- 1.60848 0 1 tcp 1040 ------- 1 0.0 1.1 53 131
r 1.61016 0 1 tcp 1040 ------- 1 0.0 1.1 51 128
+ 1.61016 1 0 ack 40 ------- 1 1.1 0.0 51 134
- 1.61016 1 0 ack 40 ------- 1 1.1 0.0 51 134
r 1.61216 1 0 ack 40 ------- 1 1.1 0.0 50 132
+ 1.61216 0 1 tcp 1040 ------- 1 0.0 1.1 55 135
- 1.6168 0 1 tcp 1040 ------- 1 0.0 1.1 54 133
r 1.61848 0 1 tcp 1040 ------- 1 0.0 1.1 52 130
+ 1.61848 1 0 ack 40 ------- 1 1.1 0.0 52 136
- 1.61848 1 0 ack 40 ------- 1 1.1 0.0 52 136
r 1.62048 1 0 ack 40 ------- 1 1.1 0.0 51 134
+ 1.62048 0 1 tcp 1040 ------- 1 0.0 1.1 56 137
- 1.62512 0 1 tcp 1040 ------- 1 0.0 1.1 55 135
r 1.6268 0 1 tcp 1040 ------- 1 0.0 1.1 53 131
+ 1.6268 1 0 ack 40 ------- 1 1.1 0.0 53 138
- 1.6268 1 0 ack 40 ------- 1 1.1 0.0 53 138
r 1.6288 1 0 ack 40 ------- 1 1.1 0.0 52 136
+ 1.6288 0 1 tcp 1040 ------- 1 0.0 1.1 57 139
- 1.63344 0 1 tcp 1040 ------- 1 0.0 1.1 56 137
r 1.63512 0 1 tcp 1040 ------- 1 0.0 1.1 54 133
+ 1.63512 1 0 ack 40 ------- 1 1.1 0.0 54 140
- 1.63512 1 0 ack 40 ------- 1 1.1 0.0 54 140
r 1.63712 1 0 ack 40 ------- 1 1.1 0.0 53 138
+ 1.63712 0 1 tcp 1040 ------- 1 0.0 1.1 58 141
- 1.64176 0 1 tcp 1040 ------- 1 0.0 1.1 57 139
r 1.64344 0 1 tcp 1040 ------- 1 0.0 1.1 55 135
+ 1.64344 1 0 ack 40 ------- 1 1.1 0.0 55 142
- 1.64344 1 0 ack 40 ------- 1 1.1 0.0 55 142
r 1.64544 1 0 ack 40 ------- 1 1.1 0.0 54 140
+ 1.64544 0 1 tcp 1040 ------- 1 0.0 1.1 59 143
+ 1.64544 0 1 tcp 1040 ------- 1 0.0 1.1 60 144
- 1.65008 0 1 tcp 1040 ------- 1 0.0 1.1 58 141
r 1.65176 0 1 tcp 1040 ------- 1 0.0 1.1 56 137
+ 1.65176 1 0 ack 40 ------- 1 1.1 0.0 56 145
- 1.65176 1 0 ack 40 ------- 1 1.1 0.0 56 145
r 1.65376 1 0 ack 40 ------- 1 1.1 0.0 55 142
+ 1.65376 0 1 tcp 1040 ------- 1 0.0 1.1 61 146
- 1.6584 0 1 tcp 1040 ------- 1 0.0 1.1 59 143
r 1.66008 0 1 tcp 1040 ------- 1 0.0 1.1 57 139
+ 1.66008 1 0 ack 40 ------- 1 1.1 0.0 57 147
- 1.66008 1 0 ack 40 ------- 1 1.1 0.0 57 147
r 1.66208 1 0 ack 40 ------- 1 1.1 0.0 56 145
+ 1.66208 0 1 tcp 1040 ------- 1 0.0 1.1 62 148
- 1.66672 0 1 tcp 1040 ------- 1 0.0 1.1 60 144
r 1.6684 0 1 tcp 1040 ------- 1 0.0 1.1 58 141
+ 1.6684 1 0 ack 40 ------- 1 1.1 0.0 58 149
- 1.6684 1 0 ack 40 ------- 1 1.1 0.0 58 149
r 1.6704 1 0 ack 40 ------- 1 1.1 0.0 57 147
+ 1.6704 0 1 tcp 1040 ------- 1 0.0 1.1 63 150
- 1.67504 0 1 tcp 1040 ------- 1 0.0 1.1 61 146
r 1.67672 0 1 tcp 1040 ------- 1 0.0 1.1 59 143
+ 1.67672 1 0 ack 40 ------- 1 1.1 0.0 59 151
- 1.67672 1 0 ack 40 ------- 1 1.1 0.0 59 151
r 1.67872 1 0 ack 40 ------- 1 1.1 0.0 58 149
+ 1.67872 0 1 tcp 1040 ------- 1 0.0 1.1 64 152
- 1.68336 0 1 tcp 1040 ------- 1 0.0 1.1 62 148
r 1.68504 0 1 tcp 1040 ------- 1 0.0 1.1 60 144
+ 1.68504 1 0 ack 40 ------- 1 1.1 0.0 60 153
- 1.68504 1 0 ack 40 ------- 1 1.1 0.0 60 153
r 1.68704 1 0 ack 40 ------- 1 1.1 0.0 59 151
+ 1.68704 0 1 tcp 1040 ------- 1 0.0 1.1 65 154
- 1.69168 0 1 tcp 1040 ------- 1 0.0 1.1 63 150
r 1.69336 0 1 tcp 1040 ------- 1 0.0 1.1 61 146
+ 1.69336 1 0 ack 40 ------- 1 1.1 0.0 61 155
- 1.69336 1 0 ack 40 ------- 1 1.1 0.0 61 155
r 1.69536 1 0 ack 40 ------- 1 1.1 0.0 60 153
+ 1.69536 0 1 tcp 1040 ------- 1 0.0 1.1 66 156
+ 1.69536 0 1 tcp 1040 ------- 1 0.0 1.1 67 157
- 1.7 0 1 tcp 1040 ------- 1 0.0 1.1 64 152
r 1.70168 0 1 tcp 1040 ------- 1 0.0 1.1 62 148
+ 1.70168 1 0 ack 40 ------- 1 1.1 0.0 62 158
- 1.70168 1 0 ack 40 ------- 1 1.1 0.0 62 158
r 1.70368 1 0 ack 40 ------- 1 1.1 0.0 61 155
+ 1.70368 0 1 tcp 1040 ------- 1 0.0 1.1 68 159
- 1.70832 0 1 tcp 1040 ------- 1 0.0 1.1 65 154
r 1.71 0 1 tcp 1040 ------- 1 0.0 1.1 63 150
+ 1.71 1 0 ack 40 ------- 1 1.1 0.0 63 160
- 1.71 1 0 ack 40 ------- 1 1.1 0.0 63 160
r 1.712 1 0 ack 40 ------- 1 1.1 0.0 62 158
+ 1.712 0 1 tcp 1040 ------- 1 0.0 1.1 69 161
- 1.71664 0 1 tcp 1040 ------- 1 0.0 1.1 66 156
r 1.71832 0 1 tcp 1040 ------- 1 0.0 1.1 64 152
+ 1.71832 1 0 ack 40 ------- 1 1.1 0.0 64 162
- 1.71832 1 0 ack 40 ------- 1 1.1 0.0 64 162
r 1.72032 1 0 ack 40 ------- 1 1.1 0.0 63 160
+ 1.72032 0 1 tcp 1040 ------- 1 0.0 1.1 70 163
- 1.72496 0 1 tcp 1040 ------- 1 0.0 1.1 67 157
r 1.72664 0 1 tcp 1040 ------- 1 0.0 1.1 65 154
+ 1.72664 1 0 ack 40 ------- 1 1.1 0.0 65 164
- 1.72664 1 0 ack 40 ------- 1 1.1 0.0 65 164
r 1.72864 1 0 ack 40 ------- 1 1.1 0.0 64 162
+ 1.72864 0 1 tcp 1040 ------- 1 0.0 1.1 71 165
- 1.73328 0 1 tcp 1040 ------- 1 0.0 1.1 68 159
r 1.73496 0 1 tcp 1040 ------- 1 0.0 1.1 66 156
+ 1.73496 1 0 ack 40 ------- 1 1.1 0.0 66 166
- 1.73496 1 0 ack 40 ------- 1 1.1 0.0 66 166
r 1.73696 1 0 ack 40 ------- 1 1.1 0.0 65 164
+ 1.73696 0 1 tcp 1040 ------- 1 0.0 1.1 72 167
- 1.7416 0 1 tcp 1040 ------- 1 0.0 1.1 69 161
r 1.74328 0 1 tcp 1040 ------- 1 0.0 1.1 67 157
+ 1.74328 1 0 ack 40 ------- 1 1.1 0.0 67 168
- 1.74328 1 0 ack 40 ------- 1 1.1 0.0 67 168
r 1.74528 1 0 ack 40 ------- 1 1.1 0.0 66 166
+ 1.74528 0 1 tcp 1040 ------- 1 0.0 1.1 73 169
- 1.74992 0 1 tcp 1040 ------- 1 0.0 1.1 70 163
r 1.7516 0 1 tcp 1040 ------- 1 0.0 1.1 68 159
+ 1.7516 1 0 ack 40 ------- 1 1.1 0.0 68 170
- 1.7516 1 0 ack 40 ------- 1 1.1 0.0 68 170
r 1.7536 1 0 ack 40 ------- 1 1.1 0.0 67 168
+ 1.7536 0 1 tcp 1040 ------- 1 0.0 1.1 74 171
+ 1.7536 0 1 tcp 1040 ------- 1 0.0 1.1 75 172
d 1.7536 0 1 tcp 1040 ------- 1 0.0 1.1 75 172
- 1.75824 0 1 tcp 1040 ------- 1 0.0 1.1 71 165
r 1.75992 0 1 tcp 1040 ------- 1 0.0 1.1 69 161
+ 1.75992 1 0 ack 40 ------- 1 1.1 0.0 69 173
- 1.75992 1 0 ack 40 ------- 1 1.1 0.0 69 173
r 1.76192 1 0 ack 40 ------- 1 1.1 0.0 68 170
+ 1.76192 0 1 tcp 1040 ------- 1 0.0 1.1 76 174
- 1.76656 0 1 tcp 1040 ------- 1 0.0 1.1 72 167
r 1.76824 0 1 tcp 1040 ------- 1 0.0 1.1 70 163
+ 1.76824 1 0 ack 40 ------- 1 1.1 0.0 70 175
- 1.76824 1 0 ack 40 ------- 1 1.1 0.0 70 175
r 1.77024 1 0 ack 40 ------- 1 1.1 0.0 69 173
+ 1.77024 0 1 tcp 1040 ------- 1 0.0 1.1 77 176
- 1.77488 0 1 tcp 1040 ------- 1 0.0 1.1 73 169
r 1.77656 0 1 tcp 1040 ------- 1 0.0 1.1 71 165
+ 1.77656 1 0 ack 40 ------- 1 1.1 0.0 71 177
- 1.77656 1 0 ack 40 ------- 1 1.1 0.0 71 177
r 1.77856 1 0 ack 40 ------- 1 1.1 0.0 70 175
+ 1.77856 0 1 tcp 1040 ------- 1 0.0 1.1 78 178
- 1.7832 0 1 tcp 1040 ------- 1 0.0 1.1 74 171
r 1.78488 0 1 tcp 1040 ------- 1 0.0 1.1 72 167
+ 1.78488 1 0 ack 40 ------- 1 1.1 0.0 72 179
- 1.78488 1 0 ack 40 ------- 1 1.1 0.0 72 179
r 1.78688 1 0 ack 40 ------- 1 1.1 0.0 71 177
+ 1.78688 0 1 tcp 1040 ------- 1 0.0 1.1 79 180
- 1.79152 0 1 tcp 1040 ------- 1 0.0 1.1 76 174
r 1.7932 0 1 tcp 1040 ------- 1 0.0 1.1 73 169
+ 1.7932 1 0 ack 40 ------- 1 1.1 0.0 73 181
- 1.7932 1 0 ack 40 ------- 1 1.1 0.0 73 181
r 1.7952 1 0 ack 40 ------- 1 1.1 0.0 72 179
+ 1.7952 0 1 tcp 1040 ------- 1 0.0 1.1 80 182
- 1.79984 0 1 tcp 1040 ------- 1 0.0 1.1 77 176
r 1.80152 0 1 tcp 1040 ------- 1 0.0 1.1 74 171
+ 1.80152 1 0 ack 40 ------- 1 1.1 0.0 74 183
- 1.80152 1 0 ack 40 ------- 1 1.1 0.0 74 183
r 1.80352 1 0 ack 40 ------- 1 1.1 0.0 73 181
+ 1.80352 0 1 tcp 1040 ------- 1 0.0 1.1 81 184
- 1.80816 0 1 tcp 1040 ------- 1 0.0 1.1 78 178
r 1.80984 0 1 tcp 1040 ------- 1 0.0 1.1 76 174
+ 1.80984 1 0 ack 40 ------- 1 1.1 0.0 74 185
- 1.80984 1 0 ack 40 ------- 1 1.1 0.0 74 185
r 1.81184 1 0 ack 40 ------- 1 1.1 0.0 74 183
+ 1.81184 0 1 tcp 1040 ------- 1 0.0 1.1 82 186
- 1.81648 0 1 tcp 1040 ------- 1 0.0 1.1 79 180
r 1.81816 0 1 tcp 1040 ------- 1 0.0 1.1 77 176
+ 1.81816 1 0 ack 40 ------- 1 1.1 0.0 74 187
- 1.81816 1 0 ack 40 ------- 1 1.1 0.0 74 187
r 1.82016 1 0 ack 40 ------- 1 1.1 0.0 74 185
+ 1.82016 0 1 tcp 1040 ------- 1 0.0 1.1 83 188
- 1.8248 0 1 tcp 1040 ------- 1 0.0 1.1 80 182
r 1.82648 0 1 tcp 1040 ------- 1 0.0 1.1 78 178
+ 1.82648 1 0 ack 40 ------- 1 1.1 0.0 74 189
- 1.82648 1 0 ack 40 ------- 1 1.1 0.0 74 189
r 1.82848 1 0 ack 40 ------- 1 1.1 0.0 74 187
+ 1.82848 0 1 tcp 1040 ------- 1 0.0 1.1 84 190
- 1.83312 0 1 tcp 1040 ------- 1 0.0 1.1 81 184
r 1.8348 0 1 tcp 1040 ------- 1 0.0 1.1 79 180
+ 1.8348 1 0 ack 40 ------- 1 1.1 0.0 74 191
- 1.8348 1 0 ack 40 ------- 1 1.1 0.0 74 191
r 1.8368 1 0 ack 40 ------- 1 1.1 0.0 74 189
+ 1.8368 0 1 tcp 1040 ---A--- 1 0.0 1.1 75 192
- 1.84144 0 1 tcp 1040 ------- 1 0.0 1.1 82 186
r 1.84312 0 1 tcp 1040 ------- 1 0.0 1.1 80 182
+ 1.84312 1 0 ack 40 ------- 1 1.1 0.0 74 193
- 1.84312 1 0 ack 40 ------- 1 1.1 0.0 74 193
r 1.84512 1 0 ack 40 ------- 1 1.1 0.0 74 191
- 1.84976 0 1 tcp 1040 ------- 1 0.0 1.1 83 188
r 1.85144 0 1 tcp 1040 ------- 1 0.0 1.1 81 184
+ 1.85144 1 0 ack 40 ------- 1 1.1 0.0 74 194
- 1.85144 1 0 ack 40 ------- 1 1.1 0.0 74 194
r 1.85344 1 0 ack 40 ------- 1 1.1 0.0 74 193
- 1.85808 0 1 tcp 1040 ------- 1 0.0 1.1 84 190
r 1.85976 0 1 tcp 1040 ------- 1 0.0 1.1 82 186
+ 1.85976 1 0 ack 40 ------- 1 1.1 0.0 74 195
- 1.85976 1 0 ack 40 ------- 1 1.1 0.0 74 195
r 1.86176 1 0 ack 40 ------- 1 1.1 0.0 74 194
- 1.8664 0 1 tcp 1040 ---A--- 1 0.0 1.1 75 192
r 1.86808 0 1 tcp 1040 ------- 1 0.0 1.1 83 188
+ 1.86808 1 0 ack 40 ------- 1 1.1 0.0 74 196
- 1.86808 1 0 ack 40 ------- 1 1.1 0.0 74 196
r 1.87008 1 0 ack 40 ------- 1 1.1 0.0 74 195
r 1.8764 0 1 tcp 1040 ------- 1 0.0 1.1 84 190
+ 1.8764 1 0 ack 40 ------- 1 1.1 0.0 74 197
- 1.8764 1 0 ack 40 ------- 1 1.1 0.0 74 197
r 1.8784 1 0 ack 40 ------- 1 1.1 0.0 74 196
r 1.88472 0 1 tcp 1040 ---A--- 1 0.0 1.1 75 192
+ 1.88472 1 0 ack 40 ------- 1 1.1 0.0 84 198
- 1.88472 1 0 ack 40 ------- 1 1.1 0.0 84 198
r 1.88672 1 0 ack 40 ------- 1 1.1 0.0 74 197
r 1.89504 1 0 ack 40 ------- 1 1.1 0.0 84 198
+ 1.89504 0 1 tcp 1040 ------- 1 0.0 1.1 85 199
- 1.89504 0 1 tcp 1040 ------- 1 0.0 1.1 85 199
+ 1.89504 0 1 tcp 1040 ------- 1 0.0 1.1 86 200
- 1.90336 0 1 tcp 1040 ------- 1 0.0 1.1 86 200
r 1.91336 0 1 tcp 1040 ------- 1 0.0 1.1 85 199
+ 1.91336 1 0 ack 40 ------- 1 1.1 0.0 85 201
- 1.91336 1 0 ack 40 ------- 1 1.1 0.0 85 201
r 1.92168 0 1 tcp 1040 ------- 1 0.0 1.1 86 200
+ 1.92168 1 0 ack 40 ------- 1 1.1 0.0 86 202
- 1.92168 1 0 ack 40 ------- 1 1.1 0.0 86 202
r 1.92368 1 0 ack 40 ------- 1 1.1 0.0 85 201
+ 1.92368 0 1 tcp 1040 ------- 1 0.0 1.1 87 203
- 1.92368 0 1 tcp 1040 ------- 1 0.0 1.1 87 203
+ 1.92368 0 1 tcp 1040 ------- 1 0.0 1.1 88 204
r 1.932 1 0 ack 40 ------- 1 1.1 0.0 86 202
+ 1.932 0 1 tcp 1040 ------- 1 0.0 1.1 89 205
+ 1.932 0 1 tcp 1040 ------- 1 0.0 1.1 90 206
- 1.932 0 1 tcp 1040 ------- 1 0.0 1.1 88 204
- 1.94032 0 1 tcp 1040 ------- 1 0.0 1.1 89 205
r 1.942 0 1 tcp 1040 ------- 1 0.0 1.1 87 203
+ 1.942 1 0 ack 40 ------- 1 1.1 0.0 87 207
- 1.942 1 0 ack 40 ------- 1 1.1 0.0 87 207
- 1.94864 0 1 tcp 1040 ------- 1 0.0 1.1 90 206
r 1.95032 0 1 tcp 1040 ------- 1 0.0 1.1 88 204
+ 1.95032 1 0 ack 40 ------- 1 1.1 0.0 88 208
- 1.95032 1 0 ack 40 ------- 1 1.1 0.0 88 208
r 1.95232 1 0 ack 40 ------- 1 1.1 0.0 87 207
+ 1.95232 0 1 tcp 1040 ------- 1 0.0 1.1 91 209
- 1.95696 0 1 tcp 1040 ------- 1 0.0 1.1 91 209
r 1.95864 0 1 tcp 1040 ------- 1 0.0 1.1 89 205
+ 1.95864 1 0 ack 40 ------- 1 1.1 0.0 89 210
- 1.95864 1 0 ack 40 ------- 1 1.1 0.0 89 210
r 1.96064 1 0 ack 40 ------- 1 1.1 0.0 88 208
+ 1.96064 0 1 tcp 1040 ------- 1 0.0 1.1 92 211
- 1.96528 0 1 tcp 1040 ------- 1 0.0 1.1 92 211
r 1.96696 0 1 tcp 1040 ------- 1 0.0 1.1 90 206
+ 1.96696 1 0 ack 40 ------- 1 1.1 0.0 90 212
- 1.96696 1 0 ack 40 ------- 1 1.1 0.0 90 212
r 1.96896 1 0 ack 40 ------- 1 1.1 0.0 89 210
+ 1.96896 0 1 tcp 1040 ------- 1 0.0 1.1 93 213
- 1.9736 0 1 tcp 1040 ------- 1 0.0 1.1 93 213
r 1.97528 0 1 tcp 1040 ------- 1 0.0 1.1 91 209
+ 1.97528 1 0 ack 40 ------- 1 1.1 0.0 91 214
- 1.97528 1 0 ack 40 ------- 1 1.1 0.0 91 214
r 1.97728 1 0 ack 40 ------- 1 1.1 0.0 90 212
+ 1.97728 0 1 tcp 1040 ------- 1 0.0 1.1 94 215
- 1.98192 0 1 tcp 1040 ------- 1 0.0 1.1 94 215
r 1.9836 0 1 tcp 1040 ------- 1 0.0 1.1 92 211
+ 1.9836 1 0 ack 40 ------- 1 1.1 0.0 92 216
- 1.9836 1 0 ack 40 ------- 1 1.1 0.0 92 216
r 1.9856 1 0 ack 40 ------- 1 1.1 0.0 91 214
+ 1.9856 0 1 tcp 1040 ------- 1 0.0 1.1 95 217
+ 1.9856 0 1 tcp 1040 ------- 1 0.0 1.1 96 218
- 1.99024 0 1 tcp 1040 ------- 1 0.0 1.1 95 217
r 1.99192 0 1 tcp 1040 ------- 1 0.0 1.1 93 213
+ 1.99192 1 0 ack 40 ------- 1 1.1 0.0 93 219
- 1.99192 1 0 ack 40 ------- 1 1.1 0.0 93 219
r 1.99392 1 0 ack 40 ------- 1 1.1 0.0 92 216
+ 1.99392 0 1 tcp 1040 ------- 1 0.0 1.1 97 220
- 1.99856 0 1 tcp 1040 ------- 1 0.0 1.1 96 218
+ 2 1 2 tcp 40 ------- 2 1.0 2.1 0 221
- 2 1 2 tcp 40 ------- 2 1.0 2.1 0 221
r 2.00024 0 1 tcp 1040 ------- 1 0.0 1.1 94 215