V -t * -v 1.0a5 -a 0
A -t * -n 1 -p 0 -o 0x7fffffff -c 30 -a 1
A -t * -h 1 -m 1073741823 -s 0
n -t * -a 8 -s 8 -S UP -v circle -c black -i black
n -t * -a 4 -s 4 -S UP -v circle -c black -i black
n -t * -a 0 -s 0 -S UP -v circle -c black -i black
n -t * -a 9 -s 9 -S UP -v circle -c black -i black
n -t * -a 5 -s 5 -S UP -v circle -c black -i black
n -t * -a 1 -s 1 -S UP -v circle -c black -i black
n -t * -a 6 -s 6 -S UP -v circle -c black -i black
n -t * -a 2 -s 2 -S UP -v circle -c black -i black
n -t * -a 7 -s 7 -S UP -v circle -c black -i black
n -t * -a 3 -s 3 -S UP -v circle -c black -i black
l -t * -s 0 -d 9 -S UP -r 1000000 -D 0.01 -c black
l -t * -s 1 -d 9 -S UP -r 1000000 -D 0.01 -c black
l -t * -s 2 -d 9 -S UP -r 1000000 -D 0.01 -c black
l -t * -s 3 -d 9 -S UP -r 1000000 -D 0.01 -c black
l -t * -s 4 -d 9 -S UP -r 1000000 -D 0.01 -c black
l -t * -s 5 -d 9 -S UP -r 1000000 -D 0.01 -c black
l -t * -s 6 -d 9 -S UP -r 1000000 -D 0.01 -c black
l -t * -s 7 -d 9 -S UP -r 1000000 -D 0.01 -c black
l -t * -s 8 -d 9 -S UP -r 1000000 -D 0.01 -c black
+ -t 0 -s 0 -d 9 -p tcp -e 40 -c 0 -i 0 -a 0 -x {0.0 9.0 0 ------- null}
- -t 0 -s 0 -d 9 -p tcp -e 40 -c 0 -i 0 -a 0 -x {0.0 9.0 0 ------- null}
h -t 0 -s 0 -d 9 -p tcp -e 40 -c 0 -i 0 -a 0 -x {0.0 9.0 -1 ------- null}
+ -t 0 -s 1 -d 9 -p tcp -e 40 -c 0 -i 1 -a 0 -x {1.0 9.1 0 ------- null}
- -t 0 -s 1 -d 9 -p tcp -e 40 -c 0 -i 1 -a 0 -x {1.0 9.1 0 ------- null}
h -t 0 -s 1 -d 9 -p tcp -e 40 -c 0 -i 1 -a 0 -x {1.0 9.1 -1 ------- null}
+ -t 0 -s 2 -d 9 -p tcp -e 40 -c 0 -i 2 -a 0 -x {2.0 9.2 0 ------- null}
- -t 0 -s 2 -d 9 -p tcp -e 40 -c 0 -i 2 -a 0 -x {2.0 9.2 0 ------- null}
h -t 0 -s 2 -d 9 -p tcp -e 40 -c 0 -i 2 -a 0 -x {2.0 9.2 -1 ------- null}
+ -t 0 -s 3 -d 9 -p tcp -e 40 -c 0 -i 3 -a 0 -x {3.0 9.3 0 ------- null}
- -t 0 -s 3 -d 9 -p tcp -e 40 -c 0 -i 3 -a 0 -x {3.0 9.3 0 ------- null}
h -t 0 -s 3 -d 9 -p tcp -e 40 -c 0 -i 3 -a 0 -x {3.0 9.3 -1 ------- null}
+ -t 0 -s 4 -d 9 -p tcp -e 40 -c 0 -i 4 -a 0 -x {4.0 9.4 0 ------- null}
- -t 0 -s 4 -d 9 -p tcp -e 40 -c 0 -i 4 -a 0 -x {4.0 9.4 0 ------- null}
h -t 0 -s 4 -d 9 -p tcp -e 40 -c 0 -i 4 -a 0 -x {4.0 9.4 -1 ------- null}
+ -t 0 -s 5 -d 9 -p tcp -e 40 -c 0 -i 5 -a 0 -x {5.0 9.5 0 ------- null}
- -t 0 -s 5 -d 9 -p tcp -e 40 -c 0 -i 5 -a 0 -x {5.0 9.5 0 ------- null}
h -t 0 -s 5 -d 9 -p tcp -e 40 -c 0 -i 5 -a 0 -x {5.0 9.5 -1 ------- null}
+ -t 0 -s 6 -d 9 -p tcp -e 40 -c 0 -i 6 -a 0 -x {6.0 9.6 0 ------- null}
- -t 0 -s 6 -d 9 -p tcp -e 40 -c 0 -i 6 -a 0 -x {6.0 9.6 0 ------- null}
h -t 0 -s 6 -d 9 -p tcp -e 40 -c 0 -i 6 -a 0 -x {6.0 9.6 -1 ------- null}
+ -t 0 -s 7 -d 9 -p tcp -e 40 -c 0 -i 7 -a 0 -x {7.0 9.7 0 ------- null}
- -t 0 -s 7 -d 9 -p tcp -e 40 -c 0 -i 7 -a 0 -x {7.0 9.7 0 ------- null}
h -t 0 -s 7 -d 9 -p tcp -e 40 -c 0 -i 7 -a 0 -x {7.0 9.7 -1 ------- null}
+ -t 0 -s 8 -d 9 -p tcp -e 40 -c 0 -i 8 -a 0 -x {8.0 9.8 0 ------- null}
- -t 0 -s 8 -d 9 -p tcp -e 40 -c 0 -i 8 -a 0 -x {8.0 9.8 0 ------- null}
h -t 0 -s 8 -d 9 -p tcp -e 40 -c 0 -i 8 -a 0 -x {8.0 9.8 -1 ------- null}
r -t 0.01032 -s 0 -d 9 -p tcp -e 40 -c 0 -i 0 -a 0 -x {0.0 9.0 0 ------- null}
+ -t 0.01032 -s 9 -d 0 -p ack -e 40 -c 0 -i 9 -a 0 -x {9.0 0.0 0 ------- null}
- -t 0.01032 -s 9 -d 0 -p ack -e 40 -c 0 -i 9 -a 0 -x {9.0 0.0 0 ------- null}
h -t 0.01032 -s 9 -d 0 -p ack -e 40 -c 0 -i 9 -a 0 -x {9.0 0.0 -1 ------- null}
r -t 0.01032 -s 1 -d 9 -p tcp -e 40 -c 0 -i 1 -a 0 -x {1.0 9.1 0 ------- null}
+ -t 0.01032 -s 9 -d 1 -p ack -e 40 -c 0 -i 10 -a 0 -x {9.1 1.0 0 ------- null}
- -t 0.01032 -s 9 -d 1 -p ack -e 40 -c 0 -i 10 -a 0 -x {9.1 1.0 0 ------- null}
h -t 0.01032 -s 9 -d 1 -p ack -e 40 -c 0 -i 10 -a 0 -x {9.1 1.0 -1 ------- null}
r -t 0.01032 -s 2 -d 9 -p tcp -e 40 -c 0 -i 2 -a 0 -x {2.0 9.2 0 ------- null}
+ -t 0.01032 -s 9 -d 2 -p ack -e 40 -c 0 -i 11 -a 0 -x {9.2 2.0 0 ------- null}
- -t 0.01032 -s 9 -d 2 -p ack -e 40 -c 0 -i 11 -a 0 -x {9.2 2.0 0 ------- null}
h -t 0.01032 -s 9 -d 2 -p ack -e 40 -c 0 -i 11 -a 0 -x {9.2 2.0 -1 ------- null}
r -t 0.01032 -s 3 -d 9 -p tcp -e 40 -c 0 -i 3 -a 0 -x {3.0 9.3 0 ------- null}
+ -t 0.01032 -s 9 -d 3 -p ack -e 40 -c 0 -i 12 -a 0 -x {9.3 3.0 0 ------- null}
- -t 0.01032 -s 9 -d 3 -p ack -e 40 -c 0 -i 12 -a 0 -x {9.3 3.0 0 ------- null}
h -t 0.01032 -s 9 -d 3 -p ack -e 40 -c 0 -i 12 -a 0 -x {9.3 3.0 -1 ------- null}
r -t 0.01032 -s 4 -d 9 -p tcp -e 40 -c 0 -i 4 -a 0 -x {4.0 9.4 0 ------- null}
+ -t 0.01032 -s 9 -d 4 -p ack -e 40 -c 0 -i 13 -a 0 -x {9.4 4.0 0 ------- null}
- -t 0.01032 -s 9 -d 4 -p ack -e 40 -c 0 -i 13 -a 0 -x {9.4 4.0 0 ------- null}
h -t 0.01032 -s 9 -d 4 -p ack -e 40 -c 0 -i 13 -a 0 -x {9.4 4.0 -1 ------- null}
r -t 0.01032 -s 5 -d 9 -p tcp -e 40 -c 0 -i 5 -a 0 -x {5.0 9.5 0 ------- null}
+ -t 0.01032 -s 9 -d 5 -p ack -e 40 -c 0 -i 14 -a 0 -x {9.5 5.0 0 ------- null}
- -t 0.01032 -s 9 -d 5 -p ack -e 40 -c 0 -i 14 -a 0 -x {9.5 5.0 0 ------- null}
h -t 0.01032 -s 9 -d 5 -p ack -e 40 -c 0 -i 14 -a 0 -x {9.5 5.0 -1 ------- null}
r -t 0.01032 -s 6 -d 9 -p tcp -e 40 -c 0 -i 6 -a 0 -x {6.0 9.6 0 ------- null}
+ -t 0.01032 -s 9 -d 6 -p ack -e 40 -c 0 -i 15 -a 0 -x {9.6 6.0 0 ------- null}
- -t 0.01032 -s 9 -d 6 -p ack -e 40 -c 0 -i 15 -a 0 -x {9.6 6.0 0 ------- null}
h -t 0.01032 -s 9 -d 6 -p ack -e 40 -c 0 -i 15 -a 0 -x {9.6 6.0 -1 ------- null}
r -t 0.01032 -s 7 -d 9 -p tcp -e 40 -c 0 -i 7 -a 0 -x {7.0 9.7 0 ------- null}
+ -t 0.01032 -s 9 -d 7 -p ack -e 40 -c 0 -i 16 -a 0 -x {9.7 7.0 0 ------- null}
- -t 0.01032 -s 9 -d 7 -p ack -e 40 -c 0 -i 16 -a 0 -x {9.7 7.0 0 ------- null}
h -t 0.01032 -s 9 -d 7 -p ack -e 40 -c 0 -i 16 -a 0 -x {9.7 7.0 -1 ------- null}
r -t 0.01032 -s 8 -d 9 -p tcp -e 40 -c 0 -i 8 -a 0 -x {8.0 9.8 0 ------- null}
+ -t 0.01032 -s 9 -d 8 -p ack -e 40 -c 0 -i 17 -a 0 -x {9.8 8.0 0 ------- null}
- -t 0.01032 -s 9 -d 8 -p ack -e 40 -c 0 -i 17 -a 0 -x {9.8 8.0 0 ------- null}
h -t 0.01032 -s 9 -d 8 -p ack -e 40 -c 0 -i 17 -a 0 -x {9.8 8.0 -1 ------- null}
r -t 0.02064 -s 9 -d 0 -p ack -e 40 -c 0 -i 9 -a 0 -x {9.0 0.0 0 ------- null}
+ -t 0.02064 -s 0 -d 9 -p tcp -e 1040 -c 0 -i 18 -a 0 -x {0.0 9.0 1 ------- null}
- -t 0.02064 -s 0 -d 9 -p tcp -e 1040 -c 0 -i 18 -a 0 -x {0.0 9.0 1 ------- null}
h -t 0.02064 -s 0 -d 9 -p tcp -e 1040 -c 0 -i 18 -a 0 -x {0.0 9.0 -1 ------- null}
+ -t 0.02064 -s 0 -d 9 -p tcp -e 1040 -c 0 -i 19 -a 0 -x {0.0 9.0 2 ------- null}
r -t 0.02064 -s 9 -d 1 -p ack -e 40 -c 0 -i 10 -a 0 -x {9.1 1.0 0 ------- null}
+ -t 0.02064 -s 1 -d 9 -p tcp -e 1040 -c 0 -i 20 -a 0 -x {1.0 9.1 1 ------- null}
- -t 0.02064 -s 1 -d 9 -p tcp -e 1040 -c 0 -i 20 -a 0 -x {1.0 9.1 1 ------- null}
h -t 0.02064 -s 1 -d 9 -p tcp -e 1040 -c 0 -i 20 -a 0 -x {1.0 9.1 -1 ------- null}
+ -t 0.02064 -s 1 -d 9 -p tcp -e 1040 -c 0 -i 21 -a 0 -x {1.0 9.1 2 ------- null}
r -t 0.02064 -s 9 -d 2 -p ack -e 40 -c 0 -i 11 -a 0 -x {9.2 2.0 0 ------- null}
+ -t 0.02064 -s 2 -d 9 -p tcp -e 1040 -c 0 -i 22 -a 0 -x {2.0 9.2 1 ------- null}
- -t 0.02064 -s 2 -d 9 -p tcp -e 1040 -c 0 -i 22 -a 0 -x {2.0 9.2 1 ------- null}
h -t 0.02064 -s 2 -d 9 -p tcp -e 1040 -c 0 -i 22 -a 0 -x {2.0 9.2 -1 ------- null}
+ -t 0.02064 -s 2 -d 9 -p tcp -e 1040 -c 0 -i 23 -a 0 -x {2.0 9.2 2 ------- null}
r -t 0.02064 -s 9 -d 3 -p ack -e 40 -c 0 -i 12 -a 0 -x {9.3 3.0 0 ------- null}
+ -t 0.02064 -s 3 -d 9 -p tcp -e 1040 -c 0 -i 24 -a 0 -x {3.0 9.3 1 ------- null}
- -t 0.02064 -s 3 -d 9 -p tcp -e 1040 -c 0 -i 24 -a 0 -x {3.0 9.3 1 ------- null}
h -t 0.02064 -s 3 -d 9 -p tcp -e 1040 -c 0 -i 24 -a 0 -x {3.0 9.3 -1 ------- null}
+ -t 0.02064 -s 3 -d 9 -p tcp -e 1040 -c 0 -i 25 -a 0 -x {3.0 9.3 2 ------- null}
r -t 0.02064 -s 9 -d 4 -p ack -e 40 -c 0 -i 13 -a 0 -x {9.4 4.0 0 ------- null}
+ -t 0.02064 -s 4 -d 9 -p tcp -e 1040 -c 0 -i 26 -a 0 -x {4.0 9.4 1 ------- null}
- -t 0.02064 -s 4 -d 9 -p tcp -e 1040 -c 0 -i 26 -a 0 -x {4.0 9.4 1 ------- null}
h -t 0.02064 -s 4 -d 9 -p tcp -e 1040 -c 0 -i 26 -a 0 -x {4.0 9.4 -1 ------- null}
+ -t 0.02064 -s 4 -d 9 -p tcp -e 1040 -c 0 -i 27 -a 0 -x {4.0 9.4 2 ------- null}
r -t 0.02064 -s 9 -d 5 -p ack -e 40 -c 0 -i 14 -a 0 -x {9.5 5.0 0 ------- null}
+ -t 0.02064 -s 5 -d 9 -p tcp -e 1040 -c 0 -i 28 -a 0 -x {5.0 9.5 1 ------- null}
- -t 0.02064 -s 5 -d 9 -p tcp -e 1040 -c 0 -i 28 -a 0 -x {5.0 9.5 1 ------- null}
h -t 0.02064 -s 5 -d 9 -p tcp -e 1040 -c 0 -i 28 -a 0 -x {5.0 9.5 -1 ------- null}
+ -t 0.02064 -s 5 -d 9 -p tcp -e 1040 -c 0 -i 29 -a 0 -x {5.0 9.5 2 ------- null}
r -t 0.02064 -s 9 -d 6 -p ack -e 40 -c 0 -i 15 -a 0 -x {9.6 6.0 0 ------- null}
+ -t 0.02064 -s 6 -d 9 -p tcp -e 1040 -c 0 -i 30 -a 0 -x {6.0 9.6 1 ------- null}
- -t 0.02064 -s 6 -d 9 -p tcp -e 1040 -c 0 -i 30 -a 0 -x {6.0 9.6 1 ------- null}
h -t 0.02064 -s 6 -d 9 -p tcp -e 1040 -c 0 -i 30 -a 0 -x {6.0 9.6 -1 ------- null}
+ -t 0.02064 -s 6 -d 9 -p tcp -e 1040 -c 0 -i 31 -a 0 -x {6.0 9.6 2 ------- null}
r -t 0.02064 -s 9 -d 7 -p ack -e 40 -c 0 -i 16 -a 0 -x {9.7 7.0 0 ------- null}
+ -t 0.02064 -s 7 -d 9 -p tcp -e 1040 -c 0 -i 32 -a 0 -x {7.0 9.7 1 ------- null}
- -t 0.02064 -s 7 -d 9 -p tcp -e 1040 -c 0 -i 32 -a 0 -x {7.0 9.7 1 ------- null}
h -t 0.02064 -s 7 -d 9 -p tcp -e 1040 -c 0 -i 32 -a 0 -x {7.0 9.7 -1 ------- null}
+ -t 0.02064 -s 7 -d 9 -p tcp -e 1040 -c 0 -i 33 -a 0 -x {7.0 9.7 2 ------- null}
r -t 0.02064 -s 9 -d 8 -p ack -e 40 -c 0 -i 17 -a 0 -x {9.8 8.0 0 ------- null}
+ -t 0.02064 -s 8 -d 9 -p tcp -e 1040 -c 0 -i 34 -a 0 -x {8.0 9.8 1 ------- null}
- -t 0.02064 -s 8 -d 9 -p tcp -e 1040 -c 0 -i 34 -a 0 -x {8.0 9.8 1 ------- null}
h -t 0.02064 -s 8 -d 9 -p tcp -e 1040 -c 0 -i 34 -a 0 -x {8.0 9.8 -1 ------- null}
+ -t 0.02064 -s 8 -d 9 -p tcp -e 1040 -c 0 -i 35 -a 0 -x {8.0 9.8 2 ------- null}
- -t 0.02896 -s 0 -d 9 -p tcp -e 1040 -c 0 -i 19 -a 0 -x {0.0 9.0 2 ------- null}
h -t 0.02896 -s 0 -d 9 -p tcp -e 1040 -c 0 -i 19 -a 0 -x {0.0 9.0 -1 ------- null}
- -t 0.02896 -s 1 -d 9 -p tcp -e 1040 -c 0 -i 21 -a 0 -x {1.0 9.1 2 ------- null}
h -t 0.02896 -s 1 -d 9 -p tcp -e 1040 -c 0 -i 21 -a 0 -x {1.0 9.1 -1 ------- null}
- -t 0.02896 -s 2 -d 9 -p tcp -e 1040 -c 0 -i 23 -a 0 -x {2.0 9.2 2 ------- null}
h -t 0.02896 -s 2 -d 9 -p tcp -e 1040 -c 0 -i 23 -a 0 -x {2.0 9.2 -1 ------- null}
- -t 0.02896 -s 3 -d 9 -p tcp -e 1040 -c 0 -i 25 -a 0 -x {3.0 9.3 2 ------- null}
h -t 0.02896 -s 3 -d 9 -p tcp -e 1040 -c 0 -i 25 -a 0 -x {3.0 9.3 -1 ------- null}
- -t 0.02896 -s 4 -d 9 -p tcp -e 1040 -c 0 -i 27 -a 0 -x {4.0 9.4 2 ------- null}
h -t 0.02896 -s 4 -d 9 -p tcp -e 1040 -c 0 -i 27 -a 0 -x {4.0 9.4 -1 ------- null}
- -t 0.02896 -s 5 -d 9 -p tcp -e 1040 -c 0 -i 29 -a 0 -x {5.0 9.5 2 ------- null}
h -t 0.02896 -s 5 -d 9 -p tcp -e 1040 -c 0 -i 29 -a 0 -x {5.0 9.5 -1 ------- null}
- -t 0.02896 -s 6 -d 9 -p tcp -e 1040 -c 0 -i 31 -a 0 -x {6.0 9.6 2 ------- null}
h -t 0.02896 -s 6 -d 9 -p tcp -e 1040 -c 0 -i 31 -a 0 -x {6.0 9.6 -1 ------- null}
- -t 0.02896 -s 7 -d 9 -p tcp -e 1040 -c 0 -i 33 -a 0 -x {7.0 9.7 2 ------- null}
h -t 0.02896 -s 7 -d 9 -p tcp -e 1040 -c 0 -i 33 -a 0 -x {7.0 9.7 -1 ------- null}
- -t 0.02896 -s 8 -d 9 -p tcp -e 1040 -c 0 -i 35 -a 0 -x {8.0 9.8 2 ------- null}
h -t 0.02896 -s 8 -d 9 -p tcp -e 1040 -c 0 -i 35 -a 0 -x {8.0 9.8 -1 ------- null}
r -t 0.03896 -s 0 -d 9 -p tcp -e 1040 -c 0 -i 18 -a 0 -x {0.0 9.0 1 ------- null}
+ -t 0.03896 -s 9 -d 0 -p ack -e 40 -c 0 -i 36 -a 0 -x {9.0 0.0 1 ------- null}
- -t 0.03896 -s 9 -d 0 -p ack -e 40 -c 0 -i 36 -a 0 -x {9.0 0.0 1 ------- null}
h -t 0.03896 -s 9 -d 0 -p ack -e 40 -c 0 -i 36 -a 0 -x {9.0 0.0 -1 ------- null}
r -t 0.03896 -s 1 -d 9 -p tcp -e 1040 -c 0 -i 20 -a 0 -x {1.0 9.1 1 ------- null}
+ -t 0.03896 -s 9 -d 1 -p ack -e 40 -c 0 -i 37 -a 0 -x {9.1 1.0 1 ------- null}
- -t 0.03896 -s 9 -d 1 -p ack -e 40 -c 0 -i 37 -a 0 -x {9.1 1.0 1 ------- null}
h -t 0.03896 -s 9 -d 1 -p ack -e 40 -c 0 -i 37 -a 0 -x {9.1 1.0 -1 ------- null}
r -t 0.03896 -s 2 -d 9 -p tcp -e 1040 -c 0 -i 22 -a 0 -x {2.0 9.2 1 ------- null}
+ -t 0.03896 -s 9 -d 2 -p ack -e 40 -c 0 -i 38 -a 0 -x {9.2 2.0 1 ------- null}
- -t 0.03896 -s 9 -d 2 -p ack -e 40 -c 0 -i 38 -a 0 -x {9.2 2.0 1 ------- null}
h -t 0.03896 -s 9 -d 2 -p ack -e 40 -c 0 -i 38 -a 0 -x {9.2 2.0 -1 ------- null}
r -t 0.03896 -s 3 -d 9 -p tcp -e 1040 -c 0 -i 24 -a 0 -x {3.0 9.3 1 ------- null}
+ -t 0.03896 -s 9 -d 3 -p ack -e 40 -c 0 -i 39 -a 0 -x {9.3 3.0 1 ------- null}
- -t 0.03896 -s 9 -d 3 -p ack -e 40 -c 0 -i 39 -a 0 -x {9.3 3.0 1 ------- null}
h -t 0.03896 -s 9 -d 3 -p ack -e 40 -c 0 -i 39 -a 0 -x {9.3 3.0 -1 ------- null}
r -t 0.03896 -s 4 -d 9 -p tcp -e 1040 -c 0 -i 26 -a 0 -x {4.0 9.4 1 ------- null}
+ -t 0.03896 -s 9 -d 4 -p ack -e 40 -c 0 -i 40 -a 0 -x {9.4 4.0 1 ------- null}
- -t 0.03896 -s 9 -d 4 -p ack -e 40 -c 0 -i 40 -a 0 -x {9.4 4.0 1 ------- null}
h -t 0.03896 -s 9 -d 4 -p ack -e 40 -c 0 -i 40 -a 0 -x {9.4 4.0 -1 ------- null}
r -t 0.03896 -s 5 -d 9 -p tcp -e 1040 -c 0 -i 28 -a 0 -x {5.0 9.5 1 ------- null}
+ -t 0.03896 -s 9 -d 5 -p ack -e 40 -c 0 -i 41 -a 0 -x {9.5 5.0 1 ------- null}
- -t 0.03896 -s 9 -d 5 -p ack -e 40 -c 0 -i 41 -a 0 -x {9.5 5.0 1 ------- null}
h -t 0.03896 -s 9 -d 5 -p ack -e 40 -c 0 -i 41 -a 0 -x {9.5 5.0 -1 ------- null}
r -t 0.03896 -s 6 -d 9 -p tcp -e 1040 -c 0 -i 30 -a 0 -x {6.0 9.6 1 ------- null}
+ -t 0.03896 -s 9 -d 6 -p ack -e 40 -c 0 -i 42 -a 0 -x {9.6 6.0 1 ------- null}
- -t 0.03896 -s 9 -d 6 -p ack -e 40 -c 0 -i 42 -a 0 -x {9.6 6.0 1 ------- null}
h -t 0.03896 -s 9 -d 6 -p ack -e 40 -c 0 -i 42 -a 0 -x {9.6 6.0 -1 ------- null}
r -t 0.03896 -s 7 -d 9 -p tcp -e 1040 -c 0 -i 32 -a 0 -x {7.0 9.7 1 ------- null}
+ -t 0.03896 -s 9 -d 7 -p ack -e 40 -c 0 -i 43 -a 0 -x {9.7 7.0 1 ------- null}
- -t 0.03896 -s 9 -d 7 -p ack -e 40 -c 0 -i 43 -a 0 -x {9.7 7.0 1 ------- null}
h -t 0.03896 -s 9 -d 7 -p ack -e 40 -c 0 -i 43 -a 0 -x {9.7 7.0 -1 ------- null}
r -t 0.03896 -s 8 -d 9 -p tcp -e 1040 -c 0 -i 34 -a 0 -x {8.0 9.8 1 ------- null}
+ -t 0.03896 -s 9 -d 8 -p ack -e 40 -c 0 -i 44 -a 0 -x {9.8 8.0 1 ------- null}
- -t 0.03896 -s 9 -d 8 -p ack -e 40 -c 0 -i 44 -a 0 -x {9.8 8.0 1 ------- null}
h -t 0.03896 -s 9 -d 8 -p ack -e 40 -c 0 -i 44 -a 0 -x {9.8 8.0 -1 ------- null}
r -t 0.04728 -s 0 -d 9 -p tcp -e 1040 -c 0 -i 19 -a 0 -x {0.0 9.0 2 ------- null}
+ -t 0.04728 -s 9 -d 0 -p ack -e 40 -c 0 -i 45 -a 0 -x {9.0 0.0 2 ------- null}
- -t 0.04728 -s 9 -d 0 -p ack -e 40 -c 0 -i 45 -a 0 -x {9.0 0.0 2 ------- null}
h -t 0.04728 -s 9 -d 0 -p ack -e 40 -c 0 -i 45 -a 0 -x {9.0 0.0 -1 ------- null}
r -t 0.04728 -s 1 -d 9 -p tcp -e 1040 -c 0 -i 21 -a 0 -x {1.0 9.1 2 ------- null}
+ -t 0.04728 -s 9 -d 1 -p ack -e 40 -c 0 -i 46 -a 0 -x {9.1 1.0 2 ------- null}
- -t 0.04728 -s 9 -d 1 -p ack -e 40 -c 0 -i 46 -a 0 -x {9.1 1.0 2 ------- null}
h -t 0.04728 -s 9 -d 1 -p ack -e 40 -c 0 -i 46 -a 0 -x {9.1 1.0 -1 ------- null}
r -t 0.04728 -s 2 -d 9 -p tcp -e 1040 -c 0 -i 23 -a 0 -x {2.0 9.2 2 ------- null}
+ -t 0.04728 -s 9 -d 2 -p ack -e 40 -c 0 -i 47 -a 0 -x {9.2 2.0 2 ------- null}
- -t 0.04728 -s 9 -d 2 -p ack -e 40 -c 0 -i 47 -a 0 -x {9.2 2.0 2 ------- null}
h -t 0.04728 -s 9 -d 2 -p ack -e 40 -c 0 -i 47 -a 0 -x {9.2 2.0 -1 ------- null}
r -t 0.04728 -s 3 -d 9 -p tcp -e 1040 -c 0 -i 25 -a 0 -x {3.0 9.3 2 ------- null}
+ -t 0.04728 -s 9 -d 3 -p ack -e 40 -c 0 -i 48 -a 0 -x {9.3 3.0 2 ------- null}
- -t 0.04728 -s 9 -d 3 -p ack -e 40 -c 0 -i 48 -a 0 -x {9.3 3.0 2 ------- null}
h -t 0.04728 -s 9 -d 3 -p ack -e 40 -c 0 -i 48 -a 0 -x {9.3 3.0 -1 ------- null}
r -t 0.04728 -s 4 -d 9 -p tcp -e 1040 -c 0 -i 27 -a 0 -x {4.0 9.4 2 ------- null}
+ -t 0.04728 -s 9 -d 4 -p ack -e 40 -c 0 -i 49 -a 0 -x {9.4 4.0 2 ------- null}
- -t 0.04728 -s 9 -d 4 -p ack -e 40 -c 0 -i 49 -a 0 -x {9.4 4.0 2 ------- null}
h -t 0.04728 -s 9 -d 4 -p ack -e 40 -c 0 -i 49 -a 0 -x {9.4 4.0 -1 ------- null}
r -t 0.04728 -s 5 -d 9 -p tcp -e 1040 -c 0 -i 29 -a 0 -x {5.0 9.5 2 ------- null}
+ -t 0.04728 -s 9 -d 5 -p ack -e 40 -c 0 -i 50 -a 0 -x {9.5 5.0 2 ------- null}
- -t 0.04728 -s 9 -d 5 -p ack -e 40 -c 0 -i 50 -a 0 -x {9.5 5.0 2 ------- null}
h -t 0.04728 -s 9 -d 5 -p ack -e 40 -c 0 -i 50 -a 0 -x {9.5 5.0 -1 ------- null}
r -t 0.04728 -s 6 -d 9 -p tcp -e 1040 -c 0 -i 31 -a 0 -x {6.0 9.6 2 ------- null}
+ -t 0.04728 -s 9 -d 6 -p ack -e 40 -c 0 -i 51 -a 0 -x {9.6 6.0 2 ------- null}
- -t 0.04728 -s 9 -d 6 -p ack -e 40 -c 0 -i 51 -a 0 -x {9.6 6.0 2 ------- null}
h -t 0.04728 -s 9 -d 6 -p ack -e 40 -c 0 -i 51 -a 0 -x {9.6 6.0 -1 ------- null}
r -t 0.04728 -s 7 -d 9 -p tcp -e 1040 -c 0 -i 33 -a 0 -x {7.0 9.7 2 ------- null}
+ -t 0.04728 -s 9 -d 7 -p ack -e 40 -c 0 -i 52 -a 0 -x {9.7 7.0 2 ------- null}
- -t 0.04728 -s 9 -d 7 -p ack -e 40 -c 0 -i 52 -a 0 -x {9.7 7.0 2 ------- null}
h -t 0.04728 -s 9 -d 7 -p ack -e 40 -c 0 -i 52 -a 0 -x {9.7 7.0 -1 ------- null}
r -t 0.04728 -s 8 -d 9 -p tcp -e 1040 -c 0 -i 35 -a 0 -x {8.0 9.8 2 ------- null}
+ -t 0.04728 -s 9 -d 8 -p ack -e 40 -c 0 -i 53 -a 0 -x {9.8 8.0 2 ------- null}
- -t 0.04728 -s 9 -d 8 -p ack -e 40 -c 0 -i 53 -a 0 -x {9.8 8.0 2 ------- null}
h -t 0.04728 -s 9 -d 8 -p ack -e 40 -c 0 -i 53 -a 0 -x {9.8 8.0 -1 ------- null}
r -t 0.04928 -s 9 -d 0 -p ack -e 40 -c 0 -i 36 -a 0 -x {9.0 0.0 1 ------- null}
+ -t 0.04928 -s 0 -d 9 -p tcp -e 1040 -c 0 -i 54 -a 0 -x {0.0 9.0 3 ------- null}
- -t 0.04928 -s 0 -d 9 -p tcp -e 1040 -c 0 -i 54 -a 0 -x {0.0 9.0 3 ------- null}
h -t 0.04928 -s 0 -d 9 -p tcp -e 1040 -c 0 -i 54 -a 0 -x {0.0 9.0 -1 ------- null}
+ -t 0.04928 -s 0 -d 9 -p tcp -e 1040 -c 0 -i 55 -a 0 -x {0.0 9.0 4 ------- null}
r -t 0.04928 -s 9 -d 1 -p ack -e 40 -c 0 -i 37 -a 0 -x {9.1 1.0 1 ------- null}
+ -t 0.04928 -s 1 -d 9 -p tcp -e 1040 -c 0 -i 56 -a 0 -x {1.0 9.1 3 ------- null}
- -t 0.04928 -s 1 -d 9 -p tcp -e 1040 -c 0 -i 56 -a 0 -x {1.0 9.1 3 ------- null}
h -t 0.04928 -s 1 -d 9 -p tcp -e 1040 -c 0 -i 56 -a 0 -x {1.0 9.1 -1 ------- null}
+ -t 0.04928 -s 1 -d 9 -p tcp -e 1040 -c 0 -i 57 -a 0 -x {1.0 9.1 4 ------- null}
r -t 0.04928 -s 9 -d 2 -p ack -e 40 -c 0 -i 38 -a 0 -x {9.2 2.0 1 ------- null}
+ -t 0.04928 -s 2 -d 9 -p tcp -e 1040 -c 0 -i 58 -a 0 -x {2.0 9.2 3 ------- null}
- -t 0.04928 -s 2 -d 9 -p tcp -e 1040 -c 0 -i 58 -a 0 -x {2.0 9.2 3 ------- null}
h -t 0.04928 -s 2 -d 9 -p tcp -e 1040 -c 0 -i 58 -a 0 -x {2.0 9.2 -1 ------- null}
+ -t 0.04928 -s 2 -d 9 -p tcp -e 1040 -c 0 -i 59 -a 0 -x {2.0 9.2 4 ------- null}
r -t 0.04928 -s 9 -d 3 -p ack -e 40 -c 0 -i 39 -a 0 -x {9.3 3.0 1 ------- null}
+ -t 0.04928 -s 3 -d 9 -p tcp -e 1040 -c 0 -i 60 -a 0 -x {3.0 9.3 3 ------- null}
- -t 0.04928 -s 3 -d 9 -p tcp -e 1040 -c 0 -i 60 -a 0 -x {3.0 9.3 3 ------- null}
h -t 0.04928 -s 3 -d 9 -p tcp -e 1040 -c 0 -i 60 -a 0 -x {3.0 9.3 -1 ------- null}
+ -t 0.04928 -s 3 -d 9 -p tcp -e 1040 -c 0 -i 61 -a 0 -x {3.0 9.3 4 ------- null}
r -t 0.04928 -s 9 -d 4 -p ack -e 40 -c 0 -i 40 -a 0 -x {9.4 4.0 1 ------- null}
+ -t 0.04928 -s 4 -d 9 -p tcp -e 1040 -c 0 -i 62 -a 0 -x {4.0 9.4 3 ------- null}
- -t 0.04928 -s 4 -d 9 -p tcp -e 1040 -c 0 -i 62 -a 0 -x {4.0 9.4 3 ------- null}
h -t 0.04928 -s 4 -d 9 -p tcp -e 1040 -c 0 -i 62 -a 0 -x {4.0 9.4 -1 ------- null}
+ -t 0.04928 -s 4 -d 9 -p tcp -e 1040 -c 0 -i 63 -a 0 -x {4.0 9.4 4 ------- null}
r -t 0.04928 -s 9 -d 5 -p ack -e 40 -c 0 -i 41 -a 0 -x {9.5 5.0 1 ------- null}
+ -t 0.04928 -s 5 -d 9 -p tcp -e 1040 -c 0 -i 64 -a 0 -x {5.0 9.5 3 ------- null}
- -t 0.04928 -s 5 -d 9 -p tcp -e 1040 -c 0 -i 64 -a 0 -x {5.0 9.5 3 ------- null}
h -t 0.04928 -s 5 -d 9 -p tcp -e 1040 -c 0 -i 64 -a 0 -x {5.0 9.5 -1 ------- null}
+ -t 0.04928 -s 5 -d 9 -p tcp -e 1040 -c 0 -i 65 -a 0 -x {5.0 9.5 4 ------- null}
r -t 0.04928 -s 9 -d 6 -p ack -e 40 -c 0 -i 42 -a 0 -x {9.6 6.0 1 ------- null}
+ -t 0.04928 -s 6 -d 9 -p tcp -e 1040 -c 0 -i 66 -a 0 -x {6.0 9.6 3 ------- null}
- -t 0.04928 -s 6 -d 9 -p tcp -e 1040 -c 0 -i 66 -a 0 -x {6.0 9.6 3 ------- null}
h -t 0.04928 -s 6 -d 9 -p tcp -e 1040 -c 0 -i 66 -a 0 -x {6.0 9.6 -1 ------- null}
+ -t 0.04928 -s 6 -d 9 -p tcp -e 1040 -c 0 -i 67 -a 0 -x {6.0 9.6 4 ------- null}
r -t 0.04928 -s 9 -d 7 -p ack -e 40 -c 0 -i 43 -a 0 -x {9.7 7.0 1 ------- null}
+ -t 0.04928 -s 7 -d 9 -p tcp -e 1040 -c 0 -i 68 -a 0 -x {7.0 9.7 3 ------- null}
- -t 0.04928 -s 7 -d 9 -p tcp -e 1040 -c 0 -i 68 -a 0 -x {7.0 9.7 3 ------- null}
h -t 0.04928 -s 7 -d 9 -p tcp -e 1040 -c 0 -i 68 -a 0 -x {7.0 9.7 -1 ------- null}
+ -t 0.04928 -s 7 -d 9 -p tcp -e 1040 -c 0 -i 69 -a 0 -x {7.0 9.7 4 ------- null}
r -t 0.04928 -s 9 -d 8 -p ack -e 40 -c 0 -i 44 -a 0 -x {9.8 8.0 1 ------- null}
+ -t 0.04928 -s 8 -d 9 -p tcp -e 1040 -c 0 -i 70 -a 0 -x {8.0 9.8 3 ------- null}
- -t 0.04928 -s 8 -d 9 -p tcp -e 1040 -c 0 -i 70 -a 0 -x {8.0 9.8 3 ------- null}
h -t 0.04928 -s 8 -d 9 -p tcp -e 1040 -c 0 -i 70 -a 0 -x {8.0 9.8 -1 ------- null}
+ -t 0.04928 -s 8 -d 9 -p tcp -e 1040 -c 0 -i 71 -a 0 -x {8.0 9.8 4 ------- null}
r -t 0.0576 -s 9 -d 0 -p ack -e 40 -c 0 -i 45 -a 0 -x {9.0 0.0 2 ------- null}
+ -t 0.0576 -s 0 -d 9 -p tcp -e 1040 -c 0 -i 72 -a 0 -x {0.0 9.0 5 ------- null}
+ -t 0.0576 -s 0 -d 9 -p tcp -e 1040 -c 0 -i 73 -a 0 -x {0.0 9.0 6 ------- null}
r -t 0.0576 -s 9 -d 1 -p ack -e 40 -c 0 -i 46 -a 0 -x {9.1 1.0 2 ------- null}
+ -t 0.0576 -s 1 -d 9 -p tcp -e 1040 -c 0 -i 74 -a 0 -x {1.0 9.1 5 ------- null}
+ -t 0.0576 -s 1 -d 9 -p tcp -e 1040 -c 0 -i 75 -a 0 -x {1.0 9.1 6 ------- null}
r -t 0.0576 -s 9 -d 2 -p ack -e 40 -c 0 -i 47 -a 0 -x {9.2 2.0 2 ------- null}
+ -t 0.0576 -s 2 -d 9 -p tcp -e 1040 -c 0 -i 76 -a 0 -x {2.0 9.2 5 ------- null}
+ -t 0.0576 -s 2 -d 9 -p tcp -e 1040 -c 0 -i 77 -a 0 -x {2.0 9.2 6 ------- null}
r -t 0.0576 -s 9 -d 3 -p ack -e 40 -c 0 -i 48 -a 0 -x {9.3 3.0 2 ------- null}
+ -t 0.0576 -s 3 -d 9 -p tcp -e 1040 -c 0 -i 78 -a 0 -x {3.0 9.3 5 ------- null}
+ -t 0.0576 -s 3 -d 9 -p tcp -e 1040 -c 0 -i 79 -a 0 -x {3.0 9.3 6 ------- null}
r -t 0.0576 -s 9 -d 4 -p ack -e 40 -c 0 -i 49 -a 0 -x {9.4 4.0 2 ------- null}
+ -t 0.0576 -s 4 -d 9 -p tcp -e 1040 -c 0 -i 80 -a 0 -x {4.0 9.4 5 ------- null}
+ -t 0.0576 -s 4 -d 9 -p tcp -e 1040 -c 0 -i 81 -a 0 -x {4.0 9.4 6 ------- null}
r -t 0.0576 -s 9 -d 5 -p ack -e 40 -c 0 -i 50 -a 0 -x {9.5 5.0 2 ------- null}
+ -t 0.0576 -s 5 -d 9 -p tcp -e 1040 -c 0 -i 82 -a 0 -x {5.0 9.5 5 ------- null}
+ -t 0.0576 -s 5 -d 9 -p tcp -e 1040 -c 0 -i 83 -a 0 -x {5.0 9.5 6 ------- null}
r -t 0.0576 -s 9 -d 6 -p ack -e 40 -c 0 -i 51 -a 0 -x {9.6 6.0 2 ------- null}
+ -t 0.0576 -s 6 -d 9 -p tcp -e 1040 -c 0 -i 84 -a 0 -x {6.0 9.6 5 ------- null}
+ -t 0.0576 -s 6 -d 9 -p tcp -e 1040 -c 0 -i 85 -a 0 -x {6.0 9.6 6 ------- null}
r -t 0.0576 -s 9 -d 7 -p ack -e 40 -c 0 -i 52 -a 0 -x {9.7 7.0 2 ------- null}
+ -t 0.0576 -s 7 -d 9 -p tcp -e 1040 -c 0 -i 86 -a 0 -x {7.0 9.7 5 ------- null}
+ -t 0.0576 -s 7 -d 9 -p tcp -e 1040 -c 0 -i 87 -a 0 -x {7.0 9.7 6 ------- null}
r -t 0.0576 -s 9 -d 8 -p ack -e 40 -c 0 -i 53 -a 0 -x {9.8 8.0 2 ------- null}
+ -t 0.0576 -s 8 -d 9 -p tcp -e 1040 -c 0 -i 88 -a 0 -x {8.0 9.8 5 ------- null}
+ -t 0.0576 -s 8 -d 9 -p tcp -e 1040 -c 0 -i 89 -a 0 -x {8.0 9.8 6 ------- null}
- -t 0.0576 -s 0 -d 9 -p tcp -e 1040 -c 0 -i 55 -a 0 -x {0.0 9.0 4 ------- null}
h -t 0.0576 -s 0 -d 9 -p tcp -e 1040 -c 0 -i 55 -a 0 -x {0.0 9.0 -1 ------- null}
- -t 0.0576 -s 1 -d 9 -p tcp -e 1040 -c 0 -i 57 -a 0 -x {1.0 9.1 4 ------- null}
h -t 0.0576 -s 1 -d 9 -p tcp -e 1040 -c 0 -i 57 -a 0 -x {1.0 9.1 -1 ------- null}
- -t 0.0576 -s 2 -d 9 -p tcp -e 1040 -c 0 -i 59 -a 0 -x {2.0 9.2 4 ------- null}
h -t 0.0576 -s 2 -d 9 -p tcp -e 1040 -c 0 -i 59 -a 0 -x {2.0 9.2 -1 ------- null}
- -t 0.0576 -s 3 -d 9 -p tcp -e 1040 -c 0 -i 61 -a 0 -x {3.0 9.3 4 ------- null}
h -t 0.0576 -s 3 -d 9 -p tcp -e 1040 -c 0 -i 61 -a 0 -x {3.0 9.3 -1 ------- null}
- -t 0.0576 -s 4 -d 9 -p tcp -e 1040 -c 0 -i 63 -a 0 -x {4.0 9.4 4 ------- null}
h -t 0.0576 -s 4 -d 9 -p tcp -e 1040 -c 0 -i 63 -a 0 -x {4.0 9.4 -1 ------- null}
- -t 0.0576 -s 5 -d 9 -p tcp -e 1040 -c 0 -i 65 -a 0 -x {5.0 9.5 4 ------- null}
h -t 0.0576 -s 5 -d 9 -p tcp -e 1040 -c 0 -i 65 -a 0 -x {5.0 9.5 -1 ------- null}
- -t 0.0576 -s 6 -d 9 -p tcp -e 1040 -c 0 -i 67 -a 0 -x {6.0 9.6 4 ------- null}
h -t 0.0576 -s 6 -d 9 -p tcp -e 1040 -c 0 -i 67 -a 0 -x {6.0 9.6 -1 ------- null}
- -t 0.0576 -s 7 -d 9 -p tcp -e 1040 -c 0 -i 69 -a 0 -x {7.0 9.7 4 ------- null}
h -t 0.0576 -s 7 -d 9 -p tcp -e 1040 -c 0 -i 69 -a 0 -x {7.0 9.7 -1 ------- null}
- -t 0.0576 -s 8 -d 9 -p tcp -e 1040 -c 0 -i 71 -a 0 -x {8.0 9.8 4 ------- null}
h -t 0.0576 -s 8 -d 9 -p tcp -e 1040 -c 0 -i 71 -a 0 -x {8.0 9.8 -1 ------- null}
- -t 0.06592 -s 0 -d 9 -p tcp -e 1040 -c 0 -i 72 -a 0 -x {0.0 9.0 5 ------- null}
h -t 0.06592 -s 0 -d 9 -p tcp -e 1040 -c 0 -i 72 -a 0 -x {0.0 9.0 -1 ------- null}
- -t 0.06592 -s 1 -d 9 -p tcp -e 1040 -c 0 -i 74 -a 0 -x {1.0 9.1 5 ------- null}
h -t 0.06592 -s 1 -d 9 -p tcp -e 1040 -c 0 -i 74 -a 0 -x {1.0 9.1 -1 ------- null}
- -t 0.06592 -s 2 -d 9 -p tcp -e 1040 -c 0 -i 76 -a 0 -x {2.0 9.2 5 ------- null}
h -t 0.06592 -s 2 -d 9 -p tcp -e 1040 -c 0 -i 76 -a 0 -x {2.0 9.2 -1 ------- null}
- -t 0.06592 -s 3 -d 9 -p tcp -e 1040 -c 0 -i 78 -a 0 -x {3.0 9.3 5 ------- null}
h -t 0.06592 -s 3 -d 9 -p tcp -e 1040 -c 0 -i 78 -a 0 -x {3.0 9.3 -1 ------- null}
- -t 0.06592 -s 4 -d 9 -p tcp -e 1040 -c 0 -i 80 -a 0 -x {4.0 9.4 5 ------- null}
h -t 0.06592 -s 4 -d 9 -p tcp -e 1040 -c 0 -i 80 -a 0 -x {4.0 9.4 -1 ------- null}
- -t 0.06592 -s 5 -d 9 -p tcp -e 1040 -c 0 -i 82 -a 0 -x {5.0 9.5 5 ------- null}
h -t 0.06592 -s 5 -d 9 -p tcp -e 1040 -c 0 -i 82 -a 0 -x {5.0 9.5 -1 ------- null}
- -t 0.06592 -s 6 -d 9 -p tcp -e 1040 -c 0 -i 84 -a 0 -x {6.0 9.6 5 ------- null}
h -t 0.06592 -s 6 -d 9 -p tcp -e 1040 -c 0 -i 84 -a 0 -x {6.0 9.6 -1 ------- null}
- -t 0.06592 -s 7 -d 9 -p tcp -e 1040 -c 0 -i 86 -a 0 -x {7.0 9.7 5 ------- null}
h -t 0.06592 -s 7 -d 9 -p tcp -e 1040 -c 0 -i 86 -a 0 -x {7.0 9.7 -1 ------- null}
- -t 0.06592 -s 8 -d 9 -p tcp -e 1040 -c 0 -i 88 -a 0 -x {8.0 9.8 5 ------- null}
h -t 0.06592 -s 8 -d 9 -p tcp -e 1040 -c 0 -i 88 -a 0 -x {8.0 9.8 -1 ------- null}
r -t 0.0676 -s 0 -d 9 -p tcp -e 1040 -c 0 -i 54 -a 0 -x {0.0 9.0 3 ------- null}
+ -t 0.0676 -s 9 -d 0 -p ack -e 40 -c 0 -i 90 -a 0 -x {9.0 0.0 3 ------- null}
- -t 0.0676 -s 9 -d 0 -p ack -e 40 -c 0 -i 90 -a 0 -x {9.0 0.0 3 ------- null}
h -t 0.0676 -s 9 -d 0 -p ack -e 40 -c 0 -i 90 -a 0 -x {9.0 0.0 -1 ------- null}
r -t 0.0676 -s 1 -d 9 -p tcp -e 1040 -c 0 -i 56 -a 0 -x {1.0 9.1 3 ------- null}
+ -t 0.0676 -s 9 -d 1 -p ack -e 40 -c 0 -i 91 -a 0 -x {9.1 1.0 3 ------- null}
- -t 0.0676 -s 9 -d 1 -p ack -e 40 -c 0 -i 91 -a 0 -x {9.1 1.0 3 ------- null}
h -t 0.0676 -s 9 -d 1 -p ack -e 40 -c 0 -i 91 -a 0 -x {9.1 1.0 -1 ------- null}
r -t 0.0676 -s 2 -d 9 -p tcp -e 1040 -c 0 -i 58 -a 0 -x {2.0 9.2 3 ------- null}
+ -t 0.0676 -s 9 -d 2 -p ack -e 40 -c 0 -i 92 -a 0 -x {9.2 2.0 3 ------- null}
- -t 0.0676 -s 9 -d 2 -p ack -e 40 -c 0 -i 92 -a 0 -x {9.2 2.0 3 ------- null}
h -t 0.0676 -s 9 -d 2 -p ack -e 40 -c 0 -i 92 -a 0 -x {9.2 2.0 -1 ------- null}
r -t 0.0676 -s 3 -d 9 -p tcp -e 1040 -c 0 -i 60 -a 0 -x {3.0 9.3 3 ------- null}
+ -t 0.0676 -s 9 -d 3 -p ack -e 40 -c 0 -i 93 -a 0 -x {9.3 3.0 3 ------- null}
- -t 0.0676 -s 9 -d 3 -p ack -e 40 -c 0 -i 93 -a 0 -x {9.3 3.0 3 ------- null}
h -t 0.0676 -s 9 -d 3 -p ack -e 40 -c 0 -i 93 -a 0 -x {9.3 3.0 -1 ------- null}
r -t 0.0676 -s 4 -d 9 -p tcp -e 1040 -c 0 -i 62 -a 0 -x {4.0 9.4 3 ------- null}
+ -t 0.0676 -s 9 -d 4 -p ack -e 40 -c 0 -i 94 -a 0 -x {9.4 4.0 3 ------- null}
- -t 0.0676 -s 9 -d 4 -p ack -e 40 -c 0 -i 94 -a 0 -x {9.4 4.0 3 ------- null}
h -t 0.0676 -s 9 -d 4 -p ack -e 40 -c 0 -i 94 -a 0 -x {9.4 4.0 -1 ------- null}
r -t 0.0676 -s 5 -d 9 -p tcp -e 1040 -c 0 -i 64 -a 0 -x {5.0 9.5 3 ------- null}
+ -t 0.0676 -s 9 -d 5 -p ack -e 40 -c 0 -i 95 -a 0 -x {9.5 5.0 3 ------- null}
- -t 0.0676 -s 9 -d 5 -p ack -e 40 -c 0 -i 95 -a 0 -x {9.5 5.0 3 ------- null}
h -t 0.0676 -s 9 -d 5 -p ack -e 40 -c 0 -i 95 -a 0 -x {9.5 5.0 -1 ------- null}
r -t 0.0676 -s 6 -d 9 -p tcp -e 1040 -c 0 -i 66 -a 0 -x {6.0 9.6 3 ------- null}
+ -t 0.0676 -s 9 -d 6 -p ack -e 40 -c 0 -i 96 -a 0 -x {9.6 6.0 3 ------- null}
- -t 0.0676 -s 9 -d 6 -p ack -e 40 -c 0 -i 96 -a 0 -x {9.6 6.0 3 ------- null}
h -t 0.0676 -s 9 -d 6 -p ack -e 40 -c 0 -i 96 -a 0 -x {9.6 6.0 -1 ------- null}
r -t 0.0676 -s 7 -d 9 -p tcp -e 1040 -c 0 -i 68 -a 0 -x {7.0 9.7 3 ------- null}
+ -t 0.0676 -s 9 -d 7 -p ack -e 40 -c 0 -i 97 -a 0 -x {9.7 7.0 3 ------- null}
- -t 0.0676 -s 9 -d 7 -p ack -e 40 -c 0 -i 97 -a 0 -x {9.7 7.0 3 ------- null}
h -t 0.0676 -s 9 -d 7 -p ack -e 40 -c 0 -i 97 -a 0 -x {9.7 7.0 -1 ------- null}
r -t 0.0676 -s 8 -d 9 -p tcp -e 1040 -c 0 -i 70 -a 0 -x {8.0 9.8 3 ------- null}
+ -t 0.0676 -s 9 -d 8 -p ack -e 40 -c 0 -i 98 -a 0 -x {9.8 8.0 3 ------- null}
- -t 0.0676 -s 9 -d 8 -p ack -e 40 -c 0 -i 98 -a 0 -x {9.8 8.0 3 ------- null}
h -t 0.0676 -s 9 -d 8 -p ack -e 40 -c 0 -i 98 -a 0 -x {9.8 8.0 -1 ------- null}
- -t 0.07424 -s 0 -d 9 -p tcp -e 1040 -c 0 -i 73 -a 0 -x {0.0 9.0 6 ------- null}
h -t 0.07424 -s 0 -d 9 -p tcp -e 1040 -c 0 -i 73 -a 0 -x {0.0 9.0 -1 ------- null}
- -t 0.07424 -s 1 -d 9 -p tcp -e 1040 -c 0 -i 75 -a 0 -x {1.0 9.1 6 ------- null}
h -t 0.07424 -s 1 -d 9 -p tcp -e 1040 -c 0 -i 75 -a 0 -x {1.0 9.1 -1 ------- null}
- -t 0.07424 -s 2 -d 9 -p tcp -e 1040 -c 0 -i 77 -a 0 -x {2.0 9.2 6 ------- null}
h -t 0.07424 -s 2 -d 9 -p tcp -e 1040 -c 0 -i 77 -a 0 -x {2.0 9.2 -1 ------- null}
- -t 0.07424 -s 3 -d 9 -p tcp -e 1040 -c 0 -i 79 -a 0 -x {3.0 9.3 6 ------- null}
h -t 0.07424 -s 3 -d 9 -p tcp -e 1040 -c 0 -i 79 -a 0 -x {3.0 9.3 -1 ------- null}
- -t 0.07424 -s 4 -d 9 -p tcp -e 1040 -c 0 -i 81 -a 0 -x {4.0 9.4 6 ------- null}
h -t 0.07424 -s 4 -d 9 -p tcp -e 1040 -c 0 -i 81 -a 0 -x {4.0 9.4 -1 ------- null}
- -t 0.07424 -s 5 -d 9 -p tcp -e 1040 -c 0 -i 83 -a 0 -x {5.0 9.5 6 ------- null}
h -t 0.07424 -s 5 -d 9 -p tcp -e 1040 -c 0 -i 83 -a 0 -x {5.0 9.5 -1 ------- null}
- -t 0.07424 -s 6 -d 9 -p tcp -e 1040 -c 0 -i 85 -a 0 -x {6.0 9.6 6 ------- null}
h -t 0.07424 -s 6 -d 9 -p tcp -e 1040 -c 0 -i 85 -a 0 -x {6.0 9.6 -1 ------- null}
- -t 0.07424 -s 7 -d 9 -p tcp -e 1040 -c 0 -i 87 -a 0 -x {7.0 9.7 6 ------- null}
h -t 0.07424 -s 7 -d 9 -p tcp -e 1040 -c 0 -i 87 -a 0 -x {7.0 9.7 -1 ------- null}
- -t 0.07424 -s 8 -d 9 -p tcp -e 1040 -c 0 -i 89 -a 0 -x {8.0 9.8 6 ------- null}